       N       E                     dE             d eps       ncg     rms          rms(c)
DAV:   1     0.153530091765E+05    0.15353E+05   -0.33087E+05  2304   0.147E+03
DAV:   2     0.564909617744E+04   -0.97039E+04   -0.84808E+04  2432   0.391E+02
DAV:   3     0.629689067529E+03   -0.50194E+04   -0.47488E+04  2904   0.262E+02
DAV:   4    -0.885040274964E+03   -0.15147E+04   -0.13910E+04  3208   0.137E+02
DAV:   5    -0.104940617137E+04   -0.16437E+03   -0.16269E+03  3840   0.597E+01    0.154E+02
RMM:   6    -0.864774273853E+03    0.18463E+03   -0.61190E+02  3172   0.307E+01    0.104E+02
RMM:   7    -0.216850098266E+04   -0.13037E+04   -0.26101E+03  3893   0.109E+02    0.419E+02
RMM:   8    -0.204405194947E+04    0.12445E+03   -0.11978E+03  3423   0.698E+01    0.439E+02
RMM:   9    -0.179960728598E+04    0.24444E+03   -0.10383E+03  3763   0.448E+01    0.387E+02
RMM:  10    -0.119213443941E+04    0.60747E+03   -0.11788E+03  3222   0.677E+01    0.263E+02
RMM:  11    -0.992708148344E+03    0.19943E+03   -0.50211E+02  3257   0.278E+01    0.163E+02
RMM:  12    -0.101405327796E+04   -0.21345E+02   -0.36093E+02  3134   0.309E+01    0.220E+02
RMM:  13    -0.994783238124E+03    0.19270E+02   -0.19772E+02  3233   0.166E+01    0.215E+02
RMM:  14    -0.924570255352E+03    0.70213E+02   -0.46305E+01  3201   0.879E+00    0.152E+02
RMM:  15    -0.102432312791E+04   -0.99753E+02   -0.14606E+02  3240   0.122E+01    0.237E+02
RMM:  16    -0.909152975852E+03    0.11517E+03   -0.27351E+01  3198   0.724E+00    0.134E+02
RMM:  17    -0.937378521359E+03   -0.28226E+02   -0.46542E+01  3280   0.735E+00    0.167E+02
RMM:  18    -0.938183513441E+03   -0.80499E+00   -0.47565E+01  3255   0.767E+00    0.159E+02
RMM:  19    -0.909854103387E+03    0.28329E+02   -0.43149E+01  3184   0.657E+00    0.147E+02
RMM:  20    -0.918639874635E+03   -0.87858E+01   -0.44662E+01  3246   0.684E+00    0.131E+02
RMM:  21    -0.901252478473E+03    0.17387E+02   -0.46769E+01  3263   0.584E+00    0.127E+02
RMM:  22    -0.886013378459E+03    0.15239E+02   -0.12629E+01  3164   0.539E+00    0.864E+01
RMM:  23    -0.889322375334E+03   -0.33090E+01   -0.56055E+00  3141   0.353E+00    0.870E+01
RMM:  24    -0.893277155954E+03   -0.39548E+01   -0.68844E+00  3174   0.320E+00    0.917E+01
RMM:  25    -0.889775234840E+03    0.35019E+01   -0.27517E+00  3090   0.285E+00    0.846E+01
RMM:  26    -0.892821632493E+03   -0.30464E+01   -0.27468E+00  3202   0.202E+00    0.840E+01
RMM:  27    -0.892002656768E+03    0.81898E+00   -0.15795E+00  3143   0.206E+00    0.812E+01
RMM:  28    -0.899726665609E+03   -0.77240E+01   -0.25604E+00  3196   0.191E+00    0.881E+01
RMM:  29    -0.900800112516E+03   -0.10734E+01   -0.17359E+00  3147   0.203E+00    0.888E+01
RMM:  30    -0.900474904375E+03    0.32521E+00   -0.11671E+00  3235   0.143E+00    0.878E+01
RMM:  31    -0.901776878084E+03   -0.13020E+01   -0.46663E-01  3109   0.111E+00    0.882E+01
RMM:  32    -0.902721528353E+03   -0.94465E+00   -0.36452E-01  3282   0.716E-01    0.886E+01
RMM:  33    -0.903022146087E+03   -0.30062E+00   -0.84859E-02  3029   0.529E-01    0.885E+01
RMM:  34    -0.902916604139E+03    0.10554E+00   -0.52028E-02  3743   0.215E-01    0.885E+01
RMM:  35    -0.904837509865E+03   -0.19209E+01   -0.50543E-01  3147   0.858E-01    0.890E+01
RMM:  36    -0.908081696894E+03   -0.32442E+01   -0.19111E+00  3172   0.175E+00    0.901E+01
RMM:  37    -0.904313569757E+03    0.37681E+01   -0.25950E+00  3208   0.208E+00    0.863E+01
RMM:  38    -0.901530314695E+03    0.27833E+01   -0.18179E+00  3180   0.188E+00    0.847E+01
RMM:  39    -0.904028445130E+03   -0.24981E+01   -0.21692E+00  3233   0.204E+00    0.890E+01
RMM:  40    -0.902957525573E+03    0.10709E+01   -0.13334E+00  3302   0.166E+00    0.870E+01
RMM:  41    -0.901760427330E+03    0.11971E+01   -0.16116E+00  3272   0.154E+00    0.872E+01
RMM:  42    -0.902755694885E+03   -0.99527E+00   -0.11637E+00  3176   0.168E+00    0.859E+01
RMM:  43    -0.903028977134E+03   -0.27328E+00   -0.49445E-01  3331   0.985E-01    0.862E+01
RMM:  44    -0.902654738416E+03    0.37424E+00   -0.16119E-01  3367   0.563E-01    0.860E+01
RMM:  45    -0.901323383821E+03    0.13314E+01   -0.49624E-01  3199   0.844E-01    0.859E+01
RMM:  46    -0.896530312035E+03    0.47931E+01   -0.11965E+00  3190   0.157E+00    0.848E+01
RMM:  47    -0.894519183114E+03    0.20111E+01   -0.10063E+00  3237   0.147E+00    0.839E+01
RMM:  48    -0.892951945760E+03    0.15672E+01   -0.10675E+00  3255   0.156E+00    0.835E+01
RMM:  49    -0.889491200273E+03    0.34607E+01   -0.63528E-01  3247   0.118E+00    0.828E+01
RMM:  50    -0.889932212521E+03   -0.44101E+00   -0.40150E-01  3261   0.920E-01    0.835E+01
RMM:  51    -0.925090516840E+03   -0.35158E+02   -0.27123E+02  3232   0.172E+01    0.128E+02
RMM:  52    -0.854773785878E+03    0.70317E+02   -0.28466E+01  2645   0.114E+01    0.754E+01
RMM:  53    -0.857484331580E+03   -0.27105E+01   -0.64011E+01  3173   0.996E+00    0.884E+01
RMM:  54    -0.850487154188E+03    0.69972E+01   -0.44163E+01  3172   0.974E+00    0.708E+01
RMM:  55    -0.852527353168E+03   -0.20402E+01   -0.26762E+01  3232   0.650E+00    0.681E+01
RMM:  56    -0.878110997599E+03   -0.25584E+02   -0.13847E+02  3212   0.151E+01    0.106E+02
RMM:  57    -0.859383180354E+03    0.18728E+02   -0.75177E+01  3145   0.143E+01    0.762E+01
RMM:  58    -0.873259767171E+03   -0.13877E+02   -0.42150E+01  3190   0.859E+00    0.120E+02
RMM:  59    -0.862007827964E+03    0.11252E+02   -0.17932E+01  3128   0.678E+00    0.824E+01
RMM:  60    -0.846708877111E+03    0.15299E+02   -0.13660E+01  3223   0.478E+00    0.548E+01
RMM:  61    -0.849667440180E+03   -0.29586E+01   -0.22443E+01  3136   0.726E+00    0.448E+01
RMM:  62    -0.850848751662E+03   -0.11813E+01   -0.14602E+01  3101   0.578E+00    0.495E+01
RMM:  63    -0.848532114591E+03    0.23166E+01   -0.98002E+00  3187   0.399E+00    0.401E+01
RMM:  64    -0.842909001793E+03    0.56231E+01   -0.21760E+01  3192   0.627E+00    0.375E+01
RMM:  65    -0.838404912899E+03    0.45041E+01   -0.10343E+01  3241   0.420E+00    0.375E+01
RMM:  66    -0.841279028660E+03   -0.28741E+01   -0.11645E+01  3104   0.496E+00    0.315E+01
RMM:  67    -0.840410803469E+03    0.86823E+00   -0.44600E+00  3023   0.373E+00    0.293E+01
RMM:  68    -0.840936902830E+03   -0.52610E+00   -0.43941E+00  3266   0.241E+00    0.266E+01
RMM:  69    -0.841851704964E+03   -0.91480E+00   -0.18213E+00  3137   0.211E+00    0.258E+01
RMM:  70    -0.842085210007E+03   -0.23351E+00   -0.71282E-01  3380   0.853E-01    0.255E+01
RMM:  71    -0.842178877755E+03   -0.93668E-01   -0.12147E+00  3144   0.149E+00    0.252E+01
RMM:  72    -0.842314791994E+03   -0.13591E+00   -0.55818E-01  3180   0.108E+00    0.280E+01
RMM:  73    -0.842291747054E+03    0.23045E-01   -0.19805E-01  3313   0.550E-01    0.278E+01
RMM:  74    -0.842283556966E+03    0.81901E-02   -0.50540E-02  3239   0.314E-01    0.264E+01
RMM:  75    -0.842241024883E+03    0.42532E-01   -0.49190E-02  3136   0.382E-01    0.258E+01
RMM:  76    -0.843359819845E+03   -0.11188E+01   -0.37290E+00  3024   0.256E+00    0.255E+01
RMM:  77    -0.843266148712E+03    0.93671E-01   -0.12183E+00  3058   0.136E+00    0.270E+01
RMM:  78    -0.843164688757E+03    0.10146E+00   -0.23583E-01  3146   0.678E-01    0.270E+01
RMM:  79    -0.843064596662E+03    0.10009E+00   -0.62146E-01  2878   0.121E+00    0.262E+01
RMM:  80    -0.843187824138E+03   -0.12323E+00   -0.54486E-01  3189   0.764E-01    0.266E+01
RMM:  81    -0.844096689274E+03   -0.90887E+00   -0.91257E-01  3145   0.135E+00    0.260E+01
RMM:  82    -0.844301237091E+03   -0.20455E+00   -0.59371E-01  3164   0.104E+00    0.254E+01
RMM:  83    -0.844666378393E+03   -0.36514E+00   -0.59103E-01  3145   0.110E+00    0.251E+01
RMM:  84    -0.844711058917E+03   -0.44681E-01   -0.90306E-01  3176   0.125E+00    0.247E+01
RMM:  85    -0.844320435540E+03    0.39062E+00   -0.17045E+00  3155   0.184E+00    0.252E+01
RMM:  86    -0.845134159544E+03   -0.81372E+00   -0.21488E+00  3160   0.167E+00    0.258E+01
RMM:  87    -0.844204800117E+03    0.92936E+00   -0.16106E+00  3184   0.156E+00    0.285E+01
RMM:  88    -0.844364075364E+03   -0.15928E+00   -0.30985E-01  3115   0.692E-01    0.283E+01
RMM:  89    -0.844307055390E+03    0.57020E-01   -0.92856E-02  3137   0.391E-01    0.281E+01
RMM:  90    -0.844373354832E+03   -0.66299E-01   -0.59173E-02  3109   0.355E-01    0.274E+01
RMM:  91    -0.843578712673E+03    0.79464E+00   -0.70646E+00  2955   0.411E+00    0.281E+01
RMM:  92    -0.847083353035E+03   -0.35046E+01   -0.29468E+00  3065   0.239E+00    0.257E+01
RMM:  93    -0.847470012438E+03   -0.38666E+00   -0.14435E+00  3027   0.187E+00    0.248E+01
RMM:  94    -0.847270566318E+03    0.19945E+00   -0.74206E-01  3160   0.981E-01    0.242E+01
RMM:  95    -0.847604770441E+03   -0.33420E+00   -0.12623E+00  3069   0.173E+00    0.273E+01
RMM:  96    -0.848454656965E+03   -0.84989E+00   -0.70737E+00  3168   0.345E+00    0.446E+01
RMM:  97    -0.846316171371E+03    0.21385E+01   -0.14006E+00  2981   0.199E+00    0.320E+01
RMM:  98    -0.847891678035E+03   -0.15755E+01   -0.80948E-01  3103   0.135E+00    0.386E+01
RMM:  99    -0.847741991042E+03    0.14969E+00   -0.26653E-01  3020   0.771E-01    0.408E+01
RMM: 100    -0.847492692487E+03    0.24930E+00   -0.79325E-02  3484   0.320E-01
   1 F= -.86800670E+03 E0= -.86796919E+03  d E =-.868007E+03  mag=     1.0115
       N       E                     dE             d eps       ncg     rms          rms(c)
DAV:   1    -0.847688221086E+03    0.53770E-01   -0.68359E+01  3056   0.133E+01    0.285E+01
RMM:   2    -0.952114833714E+03   -0.10443E+03   -0.21371E+02  3273   0.191E+01    0.169E+02
RMM:   3    -0.858908075719E+03    0.93207E+02   -0.22840E+01  2874   0.101E+01    0.325E+01
RMM:   4    -0.852532763760E+03    0.63753E+01   -0.10812E+01  3156   0.433E+00    0.226E+01
RMM:   5    -0.849047823754E+03    0.34849E+01   -0.88562E+00  3071   0.425E+00    0.205E+01
RMM:   6    -0.847403716006E+03    0.16441E+01   -0.10077E+01  3170   0.367E+00    0.144E+01
RMM:   7    -0.847808176335E+03   -0.40446E+00   -0.40628E+00  2908   0.341E+00    0.160E+01
RMM:   8    -0.849882718392E+03   -0.20745E+01   -0.95656E+00  3172   0.311E+00    0.256E+01
RMM:   9    -0.848215085049E+03    0.16676E+01   -0.94897E-01  2760   0.193E+00    0.134E+01
RMM:  10    -0.848264984843E+03   -0.49900E-01   -0.43136E-01  3450   0.565E-01    0.119E+01
RMM:  11    -0.848307614890E+03   -0.42630E-01   -0.55064E-01  3087   0.897E-01    0.909E+00
RMM:  12    -0.848471229130E+03   -0.16361E+00   -0.23237E-01  3154   0.653E-01    0.857E+00
RMM:  13    -0.848759378633E+03   -0.28815E+00   -0.51131E-01  3155   0.873E-01    0.740E+00
RMM:  14    -0.849718179977E+03   -0.95880E+00   -0.40577E+00  3093   0.144E+00    0.153E+01
RMM:  15    -0.849462787624E+03    0.25539E+00   -0.13123E+00  3034   0.863E-01    0.141E+01
RMM:  16    -0.849426357552E+03    0.36430E-01   -0.64758E-01  3143   0.669E-01    0.118E+01
RMM:  17    -0.849635907230E+03   -0.20955E+00   -0.45678E-01  3002   0.756E-01    0.119E+01
RMM:  18    -0.849777437917E+03   -0.14153E+00   -0.27728E-01  3162   0.477E-01    0.130E+01
RMM:  19    -0.849676237362E+03    0.10120E+00   -0.12305E-01  2967   0.397E-01    0.120E+01
RMM:  20    -0.849689099244E+03   -0.12862E-01   -0.40124E-02  3269   0.146E-01    0.121E+01
RMM:  21    -0.849680089823E+03    0.90094E-02   -0.23145E-02  3102   0.178E-01    0.117E+01
RMM:  22    -0.849577918347E+03    0.10217E+00   -0.29165E-01  2983   0.632E-01    0.111E+01
RMM:  23    -0.849513520030E+03    0.64398E-01   -0.66294E-01  3106   0.774E-01    0.105E+01
RMM:  24    -0.849466533644E+03    0.46986E-01   -0.30534E-01  3038   0.677E-01    0.987E+00
RMM:  25    -0.849298114907E+03    0.16842E+00   -0.43451E-01  3129   0.636E-01    0.968E+00
RMM:  26    -0.848929329190E+03    0.36879E+00   -0.32827E-01  3033   0.747E-01    0.920E+00
RMM:  27    -0.848651343937E+03    0.27799E+00   -0.49683E-01  3055   0.845E-01    0.755E+00
RMM:  28    -0.848615406415E+03    0.35938E-01   -0.33459E-01  3135   0.549E-01    0.720E+00
RMM:  29    -0.848486737720E+03    0.12867E+00   -0.18060E-01  2965   0.575E-01    0.706E+00
RMM:  30    -0.848399672387E+03    0.87065E-01   -0.17765E-01  3075   0.417E-01    0.724E+00
RMM:  31    -0.848100846915E+03    0.29883E+00   -0.19969E-01  2966   0.577E-01    0.708E+00
RMM:  32    -0.848106260120E+03   -0.54132E-02   -0.53293E-02  2868   0.193E-01    0.711E+00
RMM:  33    -0.848097872756E+03    0.83874E-02   -0.13317E-02  2970   0.127E-01    0.709E+00
RMM:  34    -0.848071025090E+03    0.26848E-01   -0.60745E-03  2764   0.910E-02    0.718E+00
RMM:  35    -0.847993052652E+03    0.77972E-01   -0.21045E-02  2600   0.233E-01    0.705E+00
RMM:  36    -0.847662358569E+03    0.33069E+00   -0.61685E-02  2937   0.347E-01    0.723E+00
RMM:  37    -0.847615004045E+03    0.47355E-01   -0.21088E-02  2734   0.118E-01    0.728E+00
RMM:  38    -0.847585150426E+03    0.29854E-01   -0.27674E-03  2144   0.788E-02    0.731E+00
RMM:  39    -0.847773632261E+03   -0.18848E+00   -0.97593E-02  2737   0.492E-01    0.720E+00
RMM:  40    -0.847875642617E+03   -0.10201E+00   -0.73136E-02  2954   0.254E-01    0.701E+00
RMM:  41    -0.847985530443E+03   -0.10989E+00   -0.14584E-01  2731   0.550E-01    0.690E+00
RMM:  42    -0.848102634499E+03   -0.11710E+00   -0.23115E-01  2952   0.547E-01    0.664E+00
RMM:  43    -0.848171334847E+03   -0.68700E-01   -0.28743E-01  2835   0.622E-01    0.664E+00
RMM:  44    -0.848146176812E+03    0.25158E-01   -0.12117E+00  2853   0.130E+00    0.700E+00
RMM:  45    -0.848210053532E+03   -0.63877E-01   -0.69772E-01  3032   0.544E-01    0.658E+00
RMM:  46    -0.848164283976E+03    0.45770E-01   -0.54750E-01  2771   0.905E-01    0.695E+00
RMM:  47    -0.846779955713E+03    0.13843E+01   -0.21044E+01  2879   0.582E+00    0.140E+01
RMM:  48    -0.846887032793E+03   -0.10708E+00   -0.26815E+00  2741   0.139E+00    0.904E+00
RMM:  49    -0.847439822720E+03   -0.55279E+00   -0.31079E-01  2882   0.936E-01    0.768E+00
RMM:  50    -0.847747565637E+03   -0.30774E+00   -0.41369E-01  2895   0.934E-01    0.878E+00
RMM:  51    -0.847975182329E+03   -0.22762E+00   -0.12181E+00  2951   0.129E+00    0.749E+00
RMM:  52    -0.841231394206E+03    0.67438E+01   -0.16762E+01  3088   0.549E+00    0.176E+01
RMM:  53    -0.840922769822E+03    0.30862E+00   -0.10584E+01  3126   0.292E+00    0.274E+01
RMM:  54    -0.841206169977E+03   -0.28340E+00   -0.46785E+00  3139   0.208E+00    0.176E+01
RMM:  55    -0.841105991464E+03    0.10018E+00   -0.91769E-01  3042   0.107E+00    0.172E+01
RMM:  56    -0.841232291849E+03   -0.12630E+00   -0.16300E-01  3433   0.397E-01    0.172E+01
RMM:  57    -0.843806970845E+03   -0.25747E+01   -0.49537E-01  2905   0.113E+00    0.148E+01
RMM:  58    -0.844106556648E+03   -0.29959E+00   -0.34961E-01  3119   0.544E-01    0.135E+01
RMM:  59    -0.844167355088E+03   -0.60798E-01   -0.43588E-02  3036   0.271E-01    0.135E+01
RMM:  60    -0.844039861287E+03    0.12749E+00   -0.41377E-02  2957   0.202E-01    0.143E+01
RMM:  61    -0.844508445733E+03   -0.46858E+00   -0.10514E-01  2920   0.359E-01    0.137E+01
RMM:  62    -0.848690545636E+03   -0.41821E+01   -0.10702E+01  2825   0.513E+00    0.925E+00
RMM:  63    -0.849024631228E+03   -0.33409E+00   -0.33197E+00  3050   0.136E+00    0.800E+00
RMM:  64    -0.848912630939E+03    0.11200E+00   -0.38419E-01  3089   0.693E-01    0.763E+00
RMM:  65    -0.848843496810E+03    0.69134E-01   -0.21009E-01  3125   0.489E-01    0.727E+00
RMM:  66    -0.848607891268E+03    0.23561E+00   -0.48430E-01  2890   0.939E-01    0.592E+00
RMM:  67    -0.848851108793E+03   -0.24322E+00   -0.99905E-01  3130   0.590E-01    0.115E+01
RMM:  68    -0.848691079152E+03    0.16003E+00   -0.13009E-01  2727   0.502E-01    0.111E+01
RMM:  69    -0.848361435609E+03    0.32964E+00   -0.24946E-01  3063   0.568E-01    0.102E+01
RMM:  70    -0.848288983077E+03    0.72453E-01   -0.39477E-01  3045   0.755E-01    0.665E+00
RMM:  71    -0.848324130114E+03   -0.35147E-01   -0.12207E-01  2883   0.413E-01    0.611E+00
RMM:  72    -0.848437735196E+03   -0.11361E+00   -0.98104E-02  2944   0.369E-01    0.665E+00
RMM:  73    -0.848517879652E+03   -0.80144E-01   -0.13353E-01  3048   0.295E-01    0.669E+00
RMM:  74    -0.848565169850E+03   -0.47290E-01   -0.69628E-02  3011   0.254E-01    0.660E+00
RMM:  75    -0.848673908304E+03   -0.10874E+00   -0.13292E-01  3011   0.270E-01    0.654E+00
RMM:  76    -0.848730795444E+03   -0.56887E-01   -0.69742E-02  2950   0.224E-01    0.645E+00
RMM:  77    -0.848944952588E+03   -0.21416E+00   -0.38534E-01  3086   0.548E-01    0.584E+00
RMM:  78    -0.849004431315E+03   -0.59479E-01   -0.15450E-01  3081   0.403E-01    0.547E+00
RMM:  79    -0.848984591678E+03    0.19840E-01   -0.20375E-01  3075   0.478E-01    0.512E+00
RMM:  80    -0.848985009937E+03   -0.41826E-03   -0.19407E-01  3068   0.367E-01    0.493E+00
RMM:  81    -0.848983960552E+03    0.10494E-02   -0.78684E-02  2983   0.269E-01    0.483E+00
RMM:  82    -0.848971255713E+03    0.12705E-01   -0.42907E-02  2957   0.168E-01    0.483E+00
RMM:  83    -0.848972286638E+03   -0.10309E-02   -0.44808E-03  2457   0.718E-02    0.483E+00
RMM:  84    -0.848974060573E+03   -0.17739E-02   -0.13687E-03  1952   0.392E-02    0.481E+00
RMM:  85    -0.848975166642E+03   -0.11061E-02   -0.81605E-04  1580   0.356E-02    0.480E+00
RMM:  86    -0.848968855666E+03    0.63110E-02   -0.19333E-03  1801   0.541E-02    0.484E+00
RMM:  87    -0.848996520321E+03   -0.27665E-01   -0.10405E-02  2770   0.142E-01    0.480E+00
RMM:  88    -0.849006875061E+03   -0.10355E-01   -0.10044E-01  2843   0.304E-01    0.460E+00
RMM:  89    -0.849022374658E+03   -0.15500E-01   -0.14191E-01  2831   0.197E-01    0.448E+00
RMM:  90    -0.849026345985E+03   -0.39713E-02   -0.11650E-02  2495   0.972E-02    0.444E+00
RMM:  91    -0.849027973709E+03   -0.16277E-02   -0.41560E-03  2226   0.494E-02    0.442E+00
RMM:  92    -0.849088210446E+03   -0.60237E-01   -0.40811E-01  2755   0.866E-01    0.516E+00
RMM:  93    -0.849113126305E+03   -0.24916E-01   -0.32942E-01  2932   0.711E-01    0.463E+00
RMM:  94    -0.849102208070E+03    0.10918E-01   -0.16945E-01  3035   0.352E-01    0.441E+00
RMM:  95    -0.849099206284E+03    0.30018E-02   -0.40179E-02  2811   0.191E-01    0.437E+00
RMM:  96    -0.849106627185E+03   -0.74209E-02   -0.14631E-01  2855   0.242E-01    0.443E+00
RMM:  97    -0.849059875108E+03    0.46752E-01   -0.11683E+00  2750   0.819E-01    0.510E+00
RMM:  98    -0.849073809187E+03   -0.13934E-01   -0.84058E-02  2836   0.233E-01    0.486E+00
RMM:  99    -0.849066554004E+03    0.72552E-02   -0.15306E-02  2502   0.191E-01    0.480E+00
RMM: 100    -0.849046558952E+03    0.19995E-01   -0.29926E-02  2855   0.172E-01
   2 F= -.86957046E+03 E0= -.86957046E+03  d E =-.156376E+01  mag=     0.2882
       N       E                     dE             d eps       ncg     rms          rms(c)
DAV:   1    -0.848996889708E+03    0.69664E-01   -0.29510E-01  3520   0.715E-01    0.436E+00
RMM:   2    -0.848874583208E+03    0.12231E+00   -0.20938E+00  2887   0.201E+00    0.460E+00
RMM:   3    -0.848967290488E+03   -0.92707E-01   -0.99011E-01  2832   0.801E-01    0.298E+00
RMM:   4    -0.848984369900E+03   -0.17079E-01   -0.59310E-01  2838   0.106E+00    0.160E+00
RMM:   5    -0.849019996735E+03   -0.35627E-01   -0.16295E-01  3038   0.490E-01    0.163E+00
RMM:   6    -0.849031298461E+03   -0.11302E-01   -0.35498E-02  2896   0.266E-01    0.167E+00
RMM:   7    -0.849046851691E+03   -0.15553E-01   -0.26572E-02  3077   0.167E-01    0.133E+00
RMM:   8    -0.849047182317E+03   -0.33063E-03   -0.28290E-02  2758   0.193E-01    0.114E+00
RMM:   9    -0.849046981519E+03    0.20080E-03   -0.11522E-02  2555   0.100E-01    0.853E-01
RMM:  10    -0.849044150171E+03    0.28313E-02   -0.13357E-02  2702   0.145E-01    0.799E-01
RMM:  11    -0.849044762385E+03   -0.61221E-03   -0.13491E-02  2630   0.104E-01    0.456E-01
RMM:  12    -0.849044448018E+03    0.31437E-03   -0.71898E-03  2465   0.103E-01    0.420E-01
RMM:  13    -0.849044958827E+03   -0.51081E-03   -0.34753E-03  2214   0.584E-02    0.285E-01
RMM:  14    -0.849045429618E+03   -0.47079E-03   -0.40548E-03  2085   0.669E-02    0.173E-01
RMM:  15    -0.849045671375E+03   -0.24176E-03   -0.30228E-03  2200   0.585E-02    0.102E-01
RMM:  16    -0.849045995933E+03   -0.32456E-03   -0.27551E-03  2028   0.579E-02    0.717E-02
RMM:  17    -0.849046366096E+03   -0.37016E-03   -0.30443E-03  1919   0.534E-02    0.398E-02
RMM:  18    -0.849046521508E+03   -0.15541E-03   -0.90468E-04  1483   0.383E-02    0.462E-02
RMM:  19    -0.849046649978E+03   -0.12847E-03   -0.50834E-04  1491   0.285E-02    0.408E-02
RMM:  20    -0.849046725026E+03   -0.75048E-04   -0.31206E-04  1461   0.296E-02
   3 F= -.86957032E+03 E0= -.86957032E+03  d E =-.156362E+01  mag=    -0.0007
       N       E                     dE             d eps       ncg     rms          rms(c)
DAV:   1    -0.849072962606E+03   -0.26313E-01   -0.13522E+00  2848   0.153E+00    0.474E-01
RMM:   2    -0.849078970164E+03   -0.60076E-02   -0.77556E-02  2959   0.559E-01    0.389E-01
RMM:   3    -0.849080685611E+03   -0.17154E-02   -0.18453E-02  3386   0.169E-01    0.330E-01
RMM:   4    -0.849080949426E+03   -0.26382E-03   -0.54948E-03  3205   0.851E-02    0.251E-01
RMM:   5    -0.849081583181E+03   -0.63376E-03   -0.52363E-03  3105   0.729E-02    0.122E-01
RMM:   6    -0.849081606174E+03   -0.22993E-04   -0.15539E-03  2237   0.521E-02    0.793E-02
RMM:   7    -0.849081730997E+03   -0.12482E-03   -0.21362E-03  2579   0.509E-02    0.539E-02
RMM:   8    -0.849081802697E+03   -0.71700E-04   -0.35356E-04  1537   0.389E-02
   4 F= -.86960401E+03 E0= -.86960401E+03  d E =-.159730E+01  mag=    -0.0000
       N       E                     dE             d eps       ncg     rms          rms(c)
DAV:   1    -0.849069259474E+03    0.12472E-01   -0.12926E+01  2432   0.475E+00    0.142E+00
RMM:   2    -0.849125499440E+03   -0.56240E-01   -0.72482E-01  2923   0.172E+00    0.121E+00
RMM:   3    -0.849141979139E+03   -0.16480E-01   -0.18001E-01  3445   0.523E-01    0.102E+00
RMM:   4    -0.849143306544E+03   -0.13274E-02   -0.54649E-02  3381   0.260E-01    0.790E-01
RMM:   5    -0.849147490912E+03   -0.41844E-02   -0.39181E-02  3412   0.212E-01    0.403E-01
RMM:   6    -0.849146424705E+03    0.10662E-02   -0.13905E-02  3196   0.139E-01    0.232E-01
RMM:   7    -0.849146781392E+03   -0.35669E-03   -0.18415E-02  3353   0.135E-01    0.162E-01
RMM:   8    -0.849146926216E+03   -0.14482E-03   -0.38741E-03  2812   0.919E-02    0.147E-01
RMM:   9    -0.849147016420E+03   -0.90204E-04   -0.19719E-03  2685   0.512E-02    0.126E-01
RMM:  10    -0.849147351413E+03   -0.33499E-03   -0.21042E-03  2115   0.464E-02    0.818E-02
RMM:  11    -0.849147603784E+03   -0.25237E-03   -0.18873E-03  1846   0.426E-02    0.524E-02
RMM:  12    -0.849147715836E+03   -0.11205E-03   -0.70320E-04  1674   0.424E-02    0.384E-02
RMM:  13    -0.849147809210E+03   -0.93375E-04   -0.54831E-04  1507   0.350E-02
   5 F= -.86966571E+03 E0= -.86966571E+03  d E =-.165900E+01  mag=     0.0000
       N       E                     dE             d eps       ncg     rms          rms(c)
DAV:   1    -0.849140660284E+03    0.70556E-02   -0.26146E+00  2600   0.214E+00    0.625E-01
RMM:   2    -0.849151811462E+03   -0.11151E-01   -0.14496E-01  2883   0.780E-01    0.530E-01
RMM:   3    -0.849155581742E+03   -0.37703E-02   -0.40532E-02  3507   0.242E-01    0.453E-01
RMM:   4    -0.849156014870E+03   -0.43313E-03   -0.12439E-02  3305   0.121E-01    0.352E-01
RMM:   5    -0.849157050388E+03   -0.10355E-02   -0.91648E-03  3315   0.102E-01    0.186E-01
RMM:   6    -0.849157032483E+03    0.17905E-04   -0.38067E-03  2960   0.688E-02    0.109E-01
RMM:   7    -0.849157203425E+03   -0.17094E-03   -0.42544E-03  3160   0.661E-02    0.773E-02
RMM:   8    -0.849157286041E+03   -0.82616E-04   -0.89931E-04  1887   0.468E-02
   6 F= -.86967324E+03 E0= -.86967324E+03  d E =-.166654E+01  mag=     0.0000
       N       E                     dE             d eps       ncg     rms          rms(c)
DAV:   1    -0.849156703037E+03    0.50039E-03   -0.58253E-02  2960   0.324E-01    0.116E-01
RMM:   2    -0.849156956383E+03   -0.25335E-03   -0.36372E-03  2789   0.121E-01    0.957E-02
RMM:   3    -0.849157076981E+03   -0.12060E-03   -0.78430E-04  1803   0.408E-02    0.787E-02
RMM:   4    -0.849157226146E+03   -0.14917E-03   -0.53943E-04  1438   0.407E-02    0.565E-02
RMM:   5    -0.849157490578E+03   -0.26443E-03   -0.19336E-03  1543   0.363E-02    0.358E-02
RMM:   6    -0.849157576796E+03   -0.86218E-04   -0.23953E-04  1391   0.335E-02
   7 F= -.86967383E+03 E0= -.86967383E+03  d E =-.166712E+01  mag=     0.0000
       N       E                     dE             d eps       ncg     rms          rms(c)
DAV:   1    -0.849157853845E+03   -0.36327E-03   -0.20729E-02  2648   0.192E-01    0.643E-02
RMM:   2    -0.849157978426E+03   -0.12458E-03   -0.11455E-03  2230   0.710E-02    0.591E-02
RMM:   3    -0.849158039486E+03   -0.61060E-04   -0.35670E-04  1399   0.311E-02
   8 F= -.86967411E+03 E0= -.86967411E+03  d E =-.166741E+01  mag=     0.0000
       N       E                     dE             d eps       ncg     rms          rms(c)
DAV:   1    -0.849184174691E+03   -0.26196E-01   -0.15575E+00  2360   0.153E+00    0.358E-01
RMM:   2    -0.849190125763E+03   -0.59511E-02   -0.68299E-02  2850   0.527E-01    0.404E-01
RMM:   3    -0.849191622812E+03   -0.14970E-02   -0.15849E-02  3219   0.149E-01    0.378E-01
RMM:   4    -0.849191683553E+03   -0.60741E-04   -0.34826E-03  2950   0.750E-02    0.342E-01
RMM:   5    -0.849192784565E+03   -0.11010E-02   -0.84870E-03  2901   0.950E-02    0.224E-01
RMM:   6    -0.849192736356E+03    0.48210E-04   -0.18451E-03  1954   0.703E-02    0.154E-01
RMM:   7    -0.849192376103E+03    0.36025E-03   -0.25829E-03  2552   0.589E-02    0.859E-02
RMM:   8    -0.849192388533E+03   -0.12430E-04   -0.67122E-04  1615   0.448E-02
   9 F= -.86970898E+03 E0= -.86970898E+03  d E =-.348683E-01  mag=     0.0000
       N       E                     dE             d eps       ncg     rms          rms(c)
DAV:   1    -0.849190641826E+03    0.17343E-02   -0.14092E+01  2328   0.461E+00    0.113E+00
RMM:   2    -0.849243999728E+03   -0.53358E-01   -0.61920E-01  2867   0.160E+00    0.123E+00
RMM:   3    -0.849258342426E+03   -0.14343E-01   -0.15246E-01  3356   0.461E-01    0.115E+00
RMM:   4    -0.849258679293E+03   -0.33687E-03   -0.36455E-02  3211   0.236E-01    0.102E+00
RMM:   5    -0.849267501231E+03   -0.88219E-02   -0.72004E-02  3176   0.261E-01    0.687E-01
RMM:   6    -0.849265381002E+03    0.21202E-02   -0.97626E-03  2648   0.187E-01    0.459E-01
RMM:   7    -0.849261503452E+03    0.38775E-02   -0.25801E-02  3205   0.164E-01    0.241E-01
RMM:   8    -0.849261470003E+03    0.33450E-04   -0.42885E-03  2787   0.982E-02    0.181E-01
RMM:   9    -0.849261406285E+03    0.63718E-04   -0.51461E-03  3215   0.609E-02    0.129E-01
RMM:  10    -0.849261520267E+03   -0.11398E-03   -0.26246E-03  2772   0.512E-02    0.835E-02
RMM:  11    -0.849261774818E+03   -0.25455E-03   -0.21994E-03  2405   0.471E-02    0.517E-02
RMM:  12    -0.849261910244E+03   -0.13543E-03   -0.88609E-04  1547   0.393E-02    0.422E-02
RMM:  13    -0.849261980183E+03   -0.69938E-04   -0.29882E-04  1430   0.298E-02
  10 F= -.86978013E+03 E0= -.86978013E+03  d E =-.106021E+00  mag=     0.0000
       N       E                     dE             d eps       ncg     rms          rms(c)
DAV:   1    -0.848982413994E+03    0.27950E+00   -0.56289E+01  2416   0.928E+00    0.238E+00
RMM:   2    -0.849183817761E+03   -0.20140E+00   -0.23292E+00  2798   0.317E+00    0.259E+00
RMM:   3    -0.849240106925E+03   -0.56289E-01   -0.59884E-01  3318   0.908E-01    0.243E+00
RMM:   4    -0.849239910947E+03    0.19598E-03   -0.14042E-01  3188   0.499E-01    0.209E+00
RMM:   5    -0.849277216408E+03   -0.37305E-01   -0.30506E-01  3192   0.537E-01    0.143E+00
RMM:   6    -0.849268471861E+03    0.87445E-02   -0.35296E-02  2687   0.376E-01    0.101E+00
RMM:   7    -0.849248548858E+03    0.19923E-01   -0.10961E-01  3200   0.342E-01    0.544E-01
RMM:   8    -0.849248212377E+03    0.33648E-03   -0.15268E-02  2899   0.200E-01    0.417E-01
RMM:   9    -0.849247130778E+03    0.10816E-02   -0.22038E-02  3363   0.122E-01    0.282E-01
RMM:  10    -0.849246931255E+03    0.19952E-03   -0.98520E-03  3329   0.998E-02    0.167E-01
RMM:  11    -0.849247488179E+03   -0.55692E-03   -0.79816E-03  3331   0.806E-02    0.105E-01
RMM:  12    -0.849247600300E+03   -0.11212E-03   -0.19154E-03  2331   0.536E-02    0.785E-02
RMM:  13    -0.849247724516E+03   -0.12422E-03   -0.15109E-03  2159   0.420E-02    0.617E-02
RMM:  14    -0.849247886639E+03   -0.16212E-03   -0.84451E-04  1638   0.398E-02    0.479E-02
RMM:  15    -0.849248045318E+03   -0.15868E-03   -0.88052E-04  1508   0.360E-02    0.467E-02
RMM:  16    -0.849248171697E+03   -0.12638E-03   -0.51946E-04  1451   0.338E-02    0.342E-02
RMM:  17    -0.849248301254E+03   -0.12956E-03   -0.65549E-04  1441   0.330E-02    0.341E-02
RMM:  18    -0.849248377944E+03   -0.76690E-04   -0.29093E-04  1406   0.300E-02
  11 F= -.86976967E+03 E0= -.86976967E+03  d E =-.955511E-01  mag=     0.0000
       N       E                     dE             d eps       ncg     rms          rms(c)
DAV:   1    -0.849191089820E+03    0.57211E-01   -0.19271E+01  2384   0.540E+00    0.142E+00
RMM:   2    -0.849263479360E+03   -0.72390E-01   -0.83551E-01  2871   0.182E+00    0.151E+00
RMM:   3    -0.849280755301E+03   -0.17276E-01   -0.18502E-01  3236   0.518E-01    0.142E+00
RMM:   4    -0.849280911072E+03   -0.15577E-03   -0.49026E-02  3226   0.273E-01    0.116E+00
RMM:   5    -0.849294644881E+03   -0.13734E-01   -0.10298E-01  3085   0.316E-01    0.716E-01
RMM:   6    -0.849286001925E+03    0.86430E-02   -0.16712E-02  2658   0.255E-01    0.466E-01
RMM:   7    -0.849283470176E+03    0.25317E-02   -0.38393E-02  3146   0.176E-01    0.272E-01
RMM:   8    -0.849283887542E+03   -0.41737E-03   -0.35959E-03  2484   0.139E-01    0.208E-01
RMM:   9    -0.849283714085E+03    0.17346E-03   -0.36400E-03  3050   0.516E-02    0.174E-01
RMM:  10    -0.849283572010E+03    0.14207E-03   -0.34234E-03  2959   0.602E-02    0.112E-01
RMM:  11    -0.849283782189E+03   -0.21018E-03   -0.21988E-03  2577   0.501E-02    0.639E-02
RMM:  12    -0.849283969824E+03   -0.18764E-03   -0.12828E-03  1714   0.411E-02    0.482E-02
RMM:  13    -0.849284090092E+03   -0.12027E-03   -0.45989E-04  1473   0.360E-02    0.335E-02
RMM:  14    -0.849284265908E+03   -0.17582E-03   -0.10636E-03  1452   0.348E-02    0.297E-02
RMM:  15    -0.849284311535E+03   -0.45627E-04   -0.16211E-04  1393   0.278E-02
  12 F= -.86980376E+03 E0= -.86980376E+03  d E =-.129649E+00  mag=     0.0000
       N       E                     dE             d eps       ncg     rms          rms(c)
DAV:   1    -0.849297807705E+03   -0.13542E-01   -0.34134E+00  2416   0.230E+00    0.401E-01
RMM:   2    -0.849308141663E+03   -0.10334E-01   -0.11511E-01  2808   0.706E-01    0.381E-01
RMM:   3    -0.849310700417E+03   -0.25588E-02   -0.26882E-02  3235   0.196E-01    0.349E-01
RMM:   4    -0.849310660000E+03    0.40417E-04   -0.54845E-03  3055   0.981E-02    0.301E-01
RMM:   5    -0.849311552758E+03   -0.89276E-03   -0.87946E-03  3098   0.968E-02    0.185E-01
RMM:   6    -0.849311300359E+03    0.25240E-03   -0.23589E-03  2372   0.670E-02    0.111E-01
RMM:   7    -0.849311335409E+03   -0.35049E-04   -0.38970E-03  2754   0.667E-02    0.630E-02
RMM:   8    -0.849311378628E+03   -0.43219E-04   -0.48557E-04  1567   0.469E-02
  13 F= -.86983013E+03 E0= -.86983013E+03  d E =-.263699E-01  mag=     0.0000
       N       E                     dE             d eps       ncg     rms          rms(c)
DAV:   1    -0.849317799246E+03   -0.64638E-02   -0.29536E+00  2368   0.214E+00    0.383E-01
RMM:   2    -0.849326894454E+03   -0.90952E-02   -0.10141E-01  2821   0.659E-01    0.351E-01
RMM:   3    -0.849329325350E+03   -0.24309E-02   -0.25303E-02  3365   0.183E-01    0.320E-01
RMM:   4    -0.849329414446E+03   -0.89096E-04   -0.57144E-03  3102   0.936E-02    0.275E-01
RMM:   5    -0.849330176164E+03   -0.76172E-03   -0.69726E-03  3208   0.856E-02    0.165E-01
RMM:   6    -0.849330092257E+03    0.83907E-04   -0.26059E-03  2539   0.592E-02    0.929E-02
RMM:   7    -0.849330202066E+03   -0.10981E-03   -0.28998E-03  2673   0.585E-02    0.583E-02
RMM:   8    -0.849330246961E+03   -0.44895E-04   -0.48915E-04  1559   0.405E-02
  14 F= -.86984836E+03 E0= -.86984836E+03  d E =-.445931E-01  mag=     0.0000
       N       E                     dE             d eps       ncg     rms          rms(c)
DAV:   1    -0.849302439231E+03    0.27763E-01   -0.11803E+01  2344   0.428E+00    0.737E-01
RMM:   2    -0.849338500437E+03   -0.36061E-01   -0.40034E-01  2830   0.131E+00    0.683E-01
RMM:   3    -0.849347533542E+03   -0.90331E-02   -0.96241E-02  3355   0.364E-01    0.626E-01
RMM:   4    -0.849347393996E+03    0.13955E-03   -0.20581E-02  3217   0.178E-01    0.542E-01
RMM:   5    -0.849349502699E+03   -0.21087E-02   -0.24354E-02  3336   0.161E-01    0.332E-01
RMM:   6    -0.849348827654E+03    0.67504E-03   -0.70217E-03  2968   0.108E-01    0.187E-01
RMM:   7    -0.849348843029E+03   -0.15374E-04   -0.10247E-02  3228   0.102E-01    0.112E-01
RMM:   8    -0.849348894627E+03   -0.51599E-04   -0.15215E-03  2290   0.642E-02    0.981E-02
RMM:   9    -0.849348918544E+03   -0.23916E-04   -0.46778E-04  1694   0.307E-02
  15 F= -.86986575E+03 E0= -.86986575E+03  d E =-.619823E-01  mag=     0.0000
       N       E                     dE             d eps       ncg     rms          rms(c)
DAV:   1    -0.849346836987E+03    0.20576E-02   -0.70533E+00  2512   0.315E+00    0.617E-01
RMM:   2    -0.849365636602E+03   -0.18800E-01   -0.20492E-01  2811   0.916E-01    0.495E-01
RMM:   3    -0.849370265831E+03   -0.46292E-02   -0.48704E-02  3248   0.253E-01    0.428E-01
RMM:   4    -0.849370229421E+03    0.36410E-04   -0.96121E-03  3184   0.124E-01    0.326E-01
RMM:   5    -0.849371246812E+03   -0.10174E-02   -0.97500E-03  3205   0.987E-02    0.176E-01
RMM:   6    -0.849370966899E+03    0.27991E-03   -0.27000E-03  2748   0.680E-02    0.109E-01
RMM:   7    -0.849371105406E+03   -0.13851E-03   -0.36863E-03  2732   0.605E-02    0.714E-02
RMM:   8    -0.849371133138E+03   -0.27732E-04   -0.44824E-04  1601   0.462E-02
  16 F= -.86988808E+03 E0= -.86988808E+03  d E =-.223362E-01  mag=     0.0000
       N       E                     dE             d eps       ncg     rms          rms(c)
DAV:   1    -0.849372024955E+03   -0.91955E-03   -0.11608E+00  2624   0.128E+00    0.266E-01
RMM:   2    -0.849375240600E+03   -0.32156E-02   -0.34475E-02  2776   0.373E-01    0.207E-01
RMM:   3    -0.849376144252E+03   -0.90365E-03   -0.89898E-03  3291   0.107E-01    0.177E-01
RMM:   4    -0.849376292865E+03   -0.14861E-03   -0.21236E-03  2648   0.548E-02    0.134E-01
RMM:   5    -0.849376655261E+03   -0.36240E-03   -0.28202E-03  2333   0.524E-02    0.621E-02
RMM:   6    -0.849376741693E+03   -0.86431E-04   -0.55162E-04  1527   0.391E-02
  17 F= -.86989374E+03 E0= -.86989374E+03  d E =-.279965E-01  mag=     0.0000
       N       E                     dE             d eps       ncg     rms          rms(c)
DAV:   1    -0.849364372568E+03    0.12283E-01   -0.46340E+00  2352   0.256E+00    0.516E-01
RMM:   2    -0.849376972060E+03   -0.12599E-01   -0.13646E-01  2813   0.745E-01    0.406E-01
RMM:   3    -0.849380120022E+03   -0.31480E-02   -0.33123E-02  3305   0.209E-01    0.350E-01
RMM:   4    -0.849380133494E+03   -0.13472E-04   -0.73830E-03  3187   0.106E-01    0.264E-01
RMM:   5    -0.849380923444E+03   -0.78995E-03   -0.74877E-03  3223   0.862E-02    0.148E-01
RMM:   6    -0.849380757677E+03    0.16577E-03   -0.20425E-03  2556   0.591E-02    0.953E-02
RMM:   7    -0.849380913837E+03   -0.15616E-03   -0.30829E-03  2613   0.595E-02    0.619E-02
RMM:   8    -0.849380943177E+03   -0.29340E-04   -0.37145E-04  1534   0.430E-02
  18 F= -.86989805E+03 E0= -.86989805E+03  d E =-.323055E-01  mag=     0.0000
       N       E                     dE             d eps       ncg     rms          rms(c)
DAV:   1    -0.849369401467E+03    0.11512E-01   -0.85296E+00  2344   0.353E+00    0.604E-01
RMM:   2    -0.849391737787E+03   -0.22336E-01   -0.23879E-01  2834   0.963E-01    0.399E-01
RMM:   3    -0.849396365922E+03   -0.46281E-02   -0.49577E-02  3273   0.261E-01    0.347E-01
RMM:   4    -0.849396465823E+03   -0.99901E-04   -0.98342E-03  3205   0.118E-01    0.272E-01
RMM:   5    -0.849397046823E+03   -0.58100E-03   -0.77962E-03  3251   0.867E-02    0.140E-01
RMM:   6    -0.849397164030E+03   -0.11721E-03   -0.24696E-03  2592   0.555E-02    0.938E-02
RMM:   7    -0.849397371635E+03   -0.20760E-03   -0.27255E-03  2657   0.529E-02    0.629E-02
RMM:   8    -0.849397428994E+03   -0.57360E-04   -0.50838E-04  1604   0.384E-02
  19 F= -.86991407E+03 E0= -.86991407E+03  d E =-.160190E-01  mag=    -0.0000
       N       E                     dE             d eps       ncg     rms          rms(c)
DAV:   1    -0.849397672441E+03   -0.30081E-03   -0.10390E+00  2488   0.123E+00    0.216E-01
RMM:   2    -0.849400514857E+03   -0.28424E-02   -0.29791E-02  2796   0.339E-01    0.152E-01
RMM:   3    -0.849401226451E+03   -0.71159E-03   -0.70698E-03  3278   0.948E-02    0.134E-01
RMM:   4    -0.849401361206E+03   -0.13475E-03   -0.17083E-03  2375   0.478E-02    0.109E-01
RMM:   5    -0.849401612560E+03   -0.25135E-03   -0.18626E-03  2084   0.485E-02    0.485E-02
RMM:   6    -0.849401763246E+03   -0.15069E-03   -0.10767E-03  1528   0.393E-02    0.401E-02
RMM:   7    -0.849401836480E+03   -0.73235E-04   -0.28827E-04  1432   0.296E-02
  20 F= -.86991832E+03 E0= -.86991832E+03  d E =-.202650E-01  mag=    -0.0000
       N       E                     dE             d eps       ncg     rms          rms(c)
DAV:   1    -0.849393209367E+03    0.85539E-02   -0.41353E+00  2344   0.246E+00    0.420E-01
RMM:   2    -0.849404133231E+03   -0.10924E-01   -0.11682E-01  2834   0.673E-01    0.280E-01
RMM:   3    -0.849406513925E+03   -0.23807E-02   -0.25350E-02  3297   0.184E-01    0.244E-01
RMM:   4    -0.849406641701E+03   -0.12778E-03   -0.54950E-03  3162   0.852E-02    0.193E-01
RMM:   5    -0.849407038170E+03   -0.39647E-03   -0.46060E-03  3097   0.658E-02    0.104E-01
RMM:   6    -0.849407158826E+03   -0.12066E-03   -0.13754E-03  2012   0.442E-02    0.719E-02
RMM:   7    -0.849407341712E+03   -0.18289E-03   -0.18623E-03  2180   0.473E-02    0.464E-02
RMM:   8    -0.849407401238E+03   -0.59525E-04   -0.31049E-04  1471   0.363E-02
  21 F= -.86992356E+03 E0= -.86992356E+03  d E =-.255087E-01  mag=    -0.0000
       N       E                     dE             d eps       ncg     rms          rms(c)
DAV:   1    -0.849406578477E+03    0.76324E-03   -0.49537E-01  2656   0.850E-01    0.149E-01
RMM:   2    -0.849407972778E+03   -0.13943E-02   -0.14359E-02  2734   0.238E-01    0.107E-01
RMM:   3    -0.849408342776E+03   -0.37000E-03   -0.35156E-03  2899   0.688E-02    0.956E-02
RMM:   4    -0.849408465640E+03   -0.12286E-03   -0.98936E-04  1898   0.451E-02    0.788E-02
RMM:   5    -0.849408684515E+03   -0.21887E-03   -0.14578E-03  1737   0.446E-02    0.368E-02
RMM:   6    -0.849408819298E+03   -0.13478E-03   -0.88620E-04  1431   0.369E-02    0.331E-02
RMM:   7    -0.849408886860E+03   -0.67562E-04   -0.22617E-04  1398   0.291E-02
  22 F= -.86992493E+03 E0= -.86992493E+03  d E =-.268840E-01  mag=    -0.0000
       N       E                     dE             d eps       ncg     rms          rms(c)
DAV:   1    -0.849408903479E+03   -0.84181E-04   -0.24398E+00  2320   0.197E+00    0.411E-01
RMM:   2    -0.849417329302E+03   -0.84258E-02   -0.96287E-02  2867   0.647E-01    0.314E-01
RMM:   3    -0.849419433163E+03   -0.21039E-02   -0.22265E-02  3290   0.181E-01    0.271E-01
RMM:   4    -0.849419480139E+03   -0.46976E-04   -0.49811E-03  3101   0.926E-02    0.211E-01
RMM:   5    -0.849420153166E+03   -0.67303E-03   -0.57523E-03  3182   0.781E-02    0.134E-01
RMM:   6    -0.849420079033E+03    0.74134E-04   -0.17851E-03  2242   0.520E-02    0.863E-02
RMM:   7    -0.849420201756E+03   -0.12272E-03   -0.24924E-03  2483   0.591E-02    0.521E-02
RMM:   8    -0.849420262121E+03   -0.60365E-04   -0.49344E-04  1486   0.397E-02
  23 F= -.86993458E+03 E0= -.86993458E+03  d E =-.964244E-02  mag=    -0.0000
       N       E                     dE             d eps       ncg     rms          rms(c)
DAV:   1    -0.849421371102E+03   -0.11693E-02   -0.21824E-01  2480   0.588E-01    0.128E-01
RMM:   2    -0.849422211323E+03   -0.84022E-03   -0.88195E-03  2741   0.197E-01    0.100E-01
RMM:   3    -0.849422501384E+03   -0.29006E-03   -0.26077E-03  2913   0.600E-02    0.887E-02
RMM:   4    -0.849422616623E+03   -0.11524E-03   -0.74792E-04  1744   0.401E-02    0.737E-02
RMM:   5    -0.849422839295E+03   -0.22267E-03   -0.13738E-03  1626   0.407E-02    0.433E-02
RMM:   6    -0.849422986726E+03   -0.14743E-03   -0.53324E-04  1419   0.400E-02    0.311E-02
RMM:   7    -0.849423123489E+03   -0.13676E-03   -0.82943E-04  1430   0.324E-02    0.299E-02
RMM:   8    -0.849423162494E+03   -0.39006E-04   -0.14107E-04  1382   0.278E-02
  24 F= -.86993696E+03 E0= -.86993696E+03  d E =-.120280E-01  mag=    -0.0000
       N       E                     dE             d eps       ncg     rms          rms(c)
DAV:   1    -0.849422034149E+03    0.10893E-02   -0.86663E-01  2320   0.117E+00    0.243E-01
RMM:   2    -0.849425195077E+03   -0.31609E-02   -0.35503E-02  2847   0.391E-01    0.186E-01
RMM:   3    -0.849426119320E+03   -0.92424E-03   -0.93899E-03  3435   0.113E-01    0.163E-01
RMM:   4    -0.849426214963E+03   -0.95643E-04   -0.24888E-03  2907   0.587E-02    0.132E-01
RMM:   5    -0.849426537317E+03   -0.32235E-03   -0.26095E-03  2751   0.554E-02    0.857E-02
RMM:   6    -0.849426623678E+03   -0.86360E-04   -0.11243E-03  1671   0.400E-02    0.583E-02
RMM:   7    -0.849426733692E+03   -0.11001E-03   -0.99922E-04  1855   0.423E-02    0.381E-02
RMM:   8    -0.849426825199E+03   -0.91507E-04   -0.47535E-04  1409   0.386E-02
  25 F= -.86993960E+03 E0= -.86993960E+03  d E =-.146621E-01  mag=    -0.0000
       N       E                     dE             d eps       ncg     rms          rms(c)
DAV:   1    -0.849421064635E+03    0.56691E-02   -0.31961E+00  2304   0.226E+00    0.414E-01
RMM:   2    -0.849430547778E+03   -0.94831E-02   -0.10611E-01  2823   0.678E-01    0.304E-01
RMM:   3    -0.849432904282E+03   -0.23565E-02   -0.24866E-02  3280   0.187E-01    0.269E-01
RMM:   4    -0.849432905193E+03   -0.91025E-06   -0.49392E-03  3134   0.891E-02    0.215E-01
RMM:   5    -0.849433458200E+03   -0.55301E-03   -0.53268E-03  3171   0.741E-02    0.136E-01
RMM:   6    -0.849433470780E+03   -0.12580E-04   -0.16897E-03  2111   0.488E-02    0.880E-02
RMM:   7    -0.849433586448E+03   -0.11567E-03   -0.22886E-03  2421   0.565E-02    0.480E-02
RMM:   8    -0.849433645735E+03   -0.59287E-04   -0.48883E-04  1477   0.397E-02
  26 F= -.86994654E+03 E0= -.86994654E+03  d E =-.694466E-02  mag=    -0.0000
       N       E                     dE             d eps       ncg     rms          rms(c)
DAV:   1    -0.849433850201E+03   -0.26375E-03   -0.83343E-02  2816   0.365E-01    0.779E-02
RMM:   2    -0.849434190207E+03   -0.34001E-03   -0.30628E-03  2600   0.116E-01    0.633E-02
RMM:   3    -0.849434301182E+03   -0.11098E-03   -0.75477E-04  1809   0.375E-02    0.579E-02
RMM:   4    -0.849434432488E+03   -0.13131E-03   -0.49263E-04  1474   0.458E-02    0.447E-02
RMM:   5    -0.849434651613E+03   -0.21913E-03   -0.15046E-03  1448   0.342E-02    0.293E-02
RMM:   6    -0.849434768934E+03   -0.11732E-03   -0.37100E-04  1402   0.351E-02    0.254E-02
RMM:   7    -0.849434859863E+03   -0.90929E-04   -0.43631E-04  1384   0.259E-02
  27 F= -.86994778E+03 E0= -.86994778E+03  d E =-.817911E-02  mag=    -0.0000
       N       E                     dE             d eps       ncg     rms          rms(c)
DAV:   1    -0.849434277424E+03    0.49151E-03   -0.32871E-01  2336   0.725E-01    0.132E-01
RMM:   2    -0.849435387985E+03   -0.11106E-02   -0.11830E-02  2775   0.222E-01    0.989E-02
RMM:   3    -0.849435713939E+03   -0.32595E-03   -0.31172E-03  2973   0.657E-02    0.904E-02
RMM:   4    -0.849435780547E+03   -0.66609E-04   -0.72617E-04  1781   0.398E-02
  28 F= -.86994874E+03 E0= -.86994874E+03  d E =-.914075E-02  mag=    -0.0000
       N       E                     dE             d eps       ncg     rms          rms(c)
DAV:   1    -0.849430470808E+03    0.52431E-02   -0.30096E+00  2304   0.220E+00    0.406E-01
RMM:   2    -0.849439019649E+03   -0.85488E-02   -0.94327E-02  2797   0.633E-01    0.279E-01
RMM:   3    -0.849441068805E+03   -0.20492E-02   -0.21987E-02  3306   0.177E-01    0.242E-01
RMM:   4    -0.849441098200E+03   -0.29395E-04   -0.47869E-03  3147   0.837E-02    0.184E-01
RMM:   5    -0.849441453306E+03   -0.35511E-03   -0.34570E-03  3004   0.589E-02    0.113E-01
RMM:   6    -0.849441621764E+03   -0.16846E-03   -0.14647E-03  2019   0.454E-02    0.626E-02
RMM:   7    -0.849441744891E+03   -0.12313E-03   -0.13449E-03  1933   0.436E-02    0.418E-02
RMM:   8    -0.849441804747E+03   -0.59856E-04   -0.33003E-04  1446   0.369E-02
  29 F= -.86995407E+03 E0= -.86995407E+03  d E =-.533642E-02  mag=    -0.0000
       N       E                     dE             d eps       ncg     rms          rms(c)
DAV:   1    -0.849442111928E+03   -0.36704E-03   -0.42310E-02  2872   0.262E-01    0.587E-02
RMM:   2    -0.849442321371E+03   -0.20944E-03   -0.16538E-03  2395   0.853E-02    0.473E-02
RMM:   3    -0.849442410178E+03   -0.88807E-04   -0.51107E-04  1569   0.313E-02
  30 F= -.86995460E+03 E0= -.86995460E+03  d E =-.586272E-02  mag=    -0.0000
       N       E                     dE             d eps       ncg     rms          rms(c)
DAV:   1    -0.849442501438E+03   -0.18007E-03   -0.16317E-01  2344   0.516E-01    0.103E-01
RMM:   2    -0.849443099871E+03   -0.59843E-03   -0.60069E-03  2707   0.160E-01    0.821E-02
RMM:   3    -0.849443267231E+03   -0.16736E-03   -0.14204E-03  2258   0.476E-02    0.723E-02
RMM:   4    -0.849443390879E+03   -0.12365E-03   -0.62378E-04  1576   0.449E-02    0.557E-02
RMM:   5    -0.849443597647E+03   -0.20677E-03   -0.13442E-03  1500   0.370E-02    0.355E-02
RMM:   6    -0.849443707771E+03   -0.11012E-03   -0.34130E-04  1392   0.378E-02    0.266E-02
RMM:   7    -0.849443817482E+03   -0.10971E-03   -0.57575E-04  1363   0.283E-02    0.269E-02
RMM:   8    -0.849443857162E+03   -0.39681E-04   -0.12213E-04  1314   0.276E-02
  31 F= -.86995589E+03 E0= -.86995589E+03  d E =-.715157E-02  mag=    -0.0000
       N       E                     dE             d eps       ncg     rms          rms(c)
DAV:   1    -0.849442338432E+03    0.14790E-02   -0.64791E-01  2320   0.102E+00    0.183E-01
RMM:   2    -0.849444306587E+03   -0.19682E-02   -0.20995E-02  2735   0.297E-01    0.123E-01
RMM:   3    -0.849444837746E+03   -0.53116E-03   -0.52998E-03  3242   0.858E-02    0.109E-01
RMM:   4    -0.849444903577E+03   -0.65831E-04   -0.11683E-03  2170   0.441E-02    0.862E-02
RMM:   5    -0.849445083463E+03   -0.17989E-03   -0.12633E-03  1902   0.428E-02    0.550E-02
RMM:   6    -0.849445225222E+03   -0.14176E-03   -0.61897E-04  1464   0.404E-02    0.373E-02
RMM:   7    -0.849445376775E+03   -0.15155E-03   -0.10178E-03  1437   0.346E-02    0.301E-02
RMM:   8    -0.849445430527E+03   -0.53752E-04   -0.17515E-04  1370   0.307E-02
  32 F= -.86995715E+03 E0= -.86995715E+03  d E =-.840961E-02  mag=    -0.0000
       N       E                     dE             d eps       ncg     rms          rms(c)
DAV:   1    -0.849441058699E+03    0.43181E-02   -0.22767E+00  2304   0.184E+00    0.330E-01
RMM:   2    -0.849447342329E+03   -0.62836E-02   -0.69576E-02  2802   0.525E-01    0.184E-01
RMM:   3    -0.849448867503E+03   -0.15252E-02   -0.16073E-02  3298   0.147E-01    0.160E-01
RMM:   4    -0.849448949499E+03   -0.81996E-04   -0.30629E-03  2924   0.669E-02    0.131E-01
RMM:   5    -0.849449167655E+03   -0.21816E-03   -0.22361E-03  2621   0.485E-02    0.861E-02
RMM:   6    -0.849449362713E+03   -0.19506E-03   -0.11686E-03  1779   0.450E-02    0.500E-02
RMM:   7    -0.849449520816E+03   -0.15810E-03   -0.10816E-03  1568   0.375E-02    0.340E-02
RMM:   8    -0.849449600831E+03   -0.80015E-04   -0.29547E-04  1407   0.366E-02
  33 F= -.86996070E+03 E0= -.86996070E+03  d E =-.355321E-02  mag=    -0.0000
       N       E                     dE             d eps       ncg     rms          rms(c)
DAV:   1    -0.849449878993E+03   -0.35818E-03   -0.60648E-02  2784   0.302E-01    0.583E-02
RMM:   2    -0.849450130738E+03   -0.25174E-03   -0.21690E-03  2488   0.950E-02    0.415E-02
RMM:   3    -0.849450230104E+03   -0.99366E-04   -0.61933E-04  1642   0.330E-02
  34 F= -.86996123E+03 E0= -.86996123E+03  d E =-.408315E-02  mag=    -0.0000
       N       E                     dE             d eps       ncg     rms          rms(c)
DAV:   1    -0.849450074649E+03    0.56089E-04   -0.23925E-01  2328   0.600E-01    0.115E-01
RMM:   2    -0.849450876215E+03   -0.80157E-03   -0.83947E-03  2712   0.184E-01    0.769E-02
RMM:   3    -0.849451108520E+03   -0.23231E-03   -0.21095E-03  2510   0.545E-02    0.683E-02
RMM:   4    -0.849451204660E+03   -0.96140E-04   -0.58344E-04  1643   0.429E-02
  35 F= -.86996201E+03 E0= -.86996201E+03  d E =-.485919E-02  mag=    -0.0000
       N       E                     dE             d eps       ncg     rms          rms(c)
DAV:   1    -0.849448992322E+03    0.21162E-02   -0.94584E-01  2304   0.119E+00    0.223E-01
RMM:   2    -0.849451631512E+03   -0.26392E-02   -0.29734E-02  2796   0.341E-01    0.135E-01
RMM:   3    -0.849452382638E+03   -0.75113E-03   -0.76639E-03  3297   0.979E-02    0.118E-01
RMM:   4    -0.849452455532E+03   -0.72894E-04   -0.14869E-03  2301   0.473E-02    0.984E-02
RMM:   5    -0.849452624522E+03   -0.16899E-03   -0.12203E-03  1948   0.429E-02    0.634E-02
RMM:   6    -0.849452813417E+03   -0.18890E-03   -0.90711E-04  1581   0.456E-02    0.376E-02
RMM:   7    -0.849452938451E+03   -0.12503E-03   -0.83299E-04  1452   0.356E-02    0.300E-02
RMM:   8    -0.849452999798E+03   -0.61348E-04   -0.22280E-04  1396   0.325E-02
  36 F= -.86996341E+03 E0= -.86996341E+03  d E =-.625838E-02  mag=    -0.0000
       N       E                     dE             d eps       ncg     rms          rms(c)
DAV:   1    -0.849451488060E+03    0.14504E-02   -0.10964E+00  2312   0.129E+00    0.231E-01
RMM:   2    -0.849454351724E+03   -0.28637E-02   -0.30893E-02  2726   0.357E-01    0.174E-01
RMM:   3    -0.849455059251E+03   -0.70753E-03   -0.72513E-03  3123   0.100E-01    0.151E-01
RMM:   4    -0.849455152378E+03   -0.93126E-04   -0.14678E-03  2396   0.517E-02    0.110E-01
RMM:   5    -0.849455407942E+03   -0.25556E-03   -0.19955E-03  2048   0.509E-02    0.544E-02
RMM:   6    -0.849455498846E+03   -0.90904E-04   -0.42309E-04  1445   0.406E-02
  37 F= -.86996591E+03 E0= -.86996591E+03  d E =-.250134E-02  mag=    -0.0000
       N       E                     dE             d eps       ncg     rms          rms(c)
DAV:   1    -0.849455682323E+03   -0.27438E-03   -0.59927E-02  2840   0.304E-01    0.690E-02
RMM:   2    -0.849455932268E+03   -0.24994E-03   -0.22698E-03  2528   0.957E-02    0.516E-02
RMM:   3    -0.849456016875E+03   -0.84608E-04   -0.54531E-04  1643   0.318E-02
  38 F= -.86996643E+03 E0= -.86996643E+03  d E =-.301999E-02  mag=    -0.0000
