       N       E                     dE             d eps       ncg     rms          rms(c)
DAV:   1     0.153893077198E+05    0.15389E+05   -0.33201E+05  2312   0.147E+03
DAV:   2     0.567611980030E+04   -0.97132E+04   -0.85109E+04  2432   0.392E+02
DAV:   3     0.617409223314E+03   -0.50587E+04   -0.47896E+04  2928   0.263E+02
DAV:   4    -0.905289290636E+03   -0.15227E+04   -0.13911E+04  3200   0.138E+02
DAV:   5    -0.106805838703E+04   -0.16277E+03   -0.16101E+03  3832   0.594E+01    0.151E+02
RMM:   6    -0.868948857917E+03    0.19911E+03   -0.60853E+02  3167   0.307E+01    0.947E+01
RMM:   7    -0.163669511430E+04   -0.76775E+03   -0.15740E+03  3624   0.702E+01    0.337E+02
RMM:   8    -0.101917225411E+04    0.61752E+03   -0.30323E+02  2963   0.275E+01    0.169E+02
RMM:   9    -0.948528918240E+03    0.70643E+02   -0.40871E+02  3248   0.250E+01    0.187E+02
RMM:  10    -0.106883754943E+04   -0.12031E+03   -0.51130E+02  3129   0.346E+01    0.247E+02
RMM:  11    -0.952171116706E+03    0.11667E+03   -0.16980E+02  3246   0.137E+01    0.171E+02
RMM:  12    -0.902253007818E+03    0.49918E+02   -0.55881E+01  3160   0.829E+00    0.112E+02
RMM:  13    -0.883698063152E+03    0.18555E+02   -0.50622E+01  3235   0.774E+00    0.857E+01
RMM:  14    -0.876888895569E+03    0.68092E+01   -0.24925E+01  3193   0.624E+00    0.650E+01
RMM:  15    -0.877652595265E+03   -0.76370E+00   -0.20151E+01  3220   0.551E+00    0.699E+01
RMM:  16    -0.910013919548E+03   -0.32361E+02   -0.54516E+01  3258   0.819E+00    0.133E+02
RMM:  17    -0.886737989438E+03    0.23276E+02   -0.88703E+00  3159   0.372E+00    0.109E+02
RMM:  18    -0.878526537558E+03    0.82115E+01   -0.45469E+00  3180   0.264E+00    0.873E+01
RMM:  19    -0.867971005148E+03    0.10556E+02   -0.29333E+00  3240   0.216E+00    0.525E+01
RMM:  20    -0.872808562984E+03   -0.48376E+01   -0.32217E+00  3170   0.245E+00    0.706E+01
RMM:  21    -0.868349343172E+03    0.44592E+01   -0.23944E+00  3231   0.180E+00    0.544E+01
RMM:  22    -0.872307180311E+03   -0.39578E+01   -0.24377E+00  3149   0.200E+00    0.608E+01
RMM:  23    -0.867626646128E+03    0.46805E+01   -0.16794E+00  3228   0.164E+00    0.549E+01
RMM:  24    -0.868280037531E+03   -0.65339E+00   -0.85861E-01  3152   0.124E+00    0.563E+01
RMM:  25    -0.866991104065E+03    0.12889E+01   -0.30718E-01  3244   0.721E-01    0.545E+01
RMM:  26    -0.869404127711E+03   -0.24130E+01   -0.91911E-01  3143   0.105E+00    0.564E+01
RMM:  27    -0.868684420423E+03    0.71971E+00   -0.11366E+00  3221   0.111E+00    0.556E+01
RMM:  28    -0.869574316386E+03   -0.88990E+00   -0.17863E+00  3177   0.161E+00    0.549E+01
RMM:  29    -0.868631712058E+03    0.94260E+00   -0.45142E+00  3191   0.245E+00    0.558E+01
RMM:  30    -0.858969136800E+03    0.96626E+01   -0.27381E+00  3175   0.211E+00    0.494E+01
RMM:  31    -0.853405007989E+03    0.55641E+01   -0.25527E+00  3197   0.178E+00    0.479E+01
RMM:  32    -0.850895669111E+03    0.25093E+01   -0.14147E+00  3207   0.141E+00    0.460E+01
RMM:  33    -0.847132812414E+03    0.37629E+01   -0.12794E+00  3202   0.139E+00    0.419E+01
RMM:  34    -0.846523946589E+03    0.60887E+00   -0.81234E-01  3209   0.109E+00    0.411E+01
RMM:  35    -0.845233645331E+03    0.12903E+01   -0.10149E+00  3215   0.121E+00    0.402E+01
RMM:  36    -0.845232737987E+03    0.90734E-03   -0.31037E-01  3200   0.757E-01    0.390E+01
RMM:  37    -0.844290653206E+03    0.94208E+00   -0.49819E-01  3164   0.927E-01    0.374E+01
RMM:  38    -0.844310990197E+03   -0.20337E-01   -0.13153E-01  3162   0.523E-01    0.368E+01
RMM:  39    -0.844517453183E+03   -0.20646E+00   -0.46811E-02  3374   0.247E-01    0.368E+01
RMM:  40    -0.844154298620E+03    0.36315E+00   -0.23878E-02  3183   0.217E-01    0.366E+01
RMM:  41    -0.844162887118E+03   -0.85885E-02   -0.12485E-02  3190   0.113E-01    0.366E+01
RMM:  42    -0.844127875953E+03    0.35011E-01   -0.16916E-02  3095   0.163E-01    0.368E+01
RMM:  43    -0.843615779897E+03    0.51210E+00   -0.29714E-02  3117   0.237E-01    0.366E+01
RMM:  44    -0.842510401372E+03    0.11054E+01   -0.13341E-01  3109   0.501E-01    0.359E+01
RMM:  45    -0.842605631596E+03   -0.95230E-01   -0.42222E-02  3110   0.288E-01    0.357E+01
RMM:  46    -0.842524932955E+03    0.80699E-01   -0.22265E-02  3083   0.212E-01    0.360E+01
RMM:  47    -0.842583119117E+03   -0.58186E-01   -0.69284E-03  2680   0.123E-01    0.361E+01
RMM:  48    -0.842629724731E+03   -0.46606E-01   -0.24668E-03  2596   0.856E-02    0.360E+01
RMM:  49    -0.841836622542E+03    0.79310E+00   -0.13118E-01  3120   0.477E-01    0.358E+01
RMM:  50    -0.841840433228E+03   -0.38107E-02   -0.19596E-02  2931   0.240E-01    0.358E+01
RMM:  51    -0.843999795186E+03   -0.21594E+01   -0.60860E+01  3213   0.984E+00    0.488E+01
RMM:  52    -0.851305303525E+03   -0.73055E+01   -0.27818E+01  3026   0.567E+00    0.437E+01
RMM:  53    -0.854058381615E+03   -0.27531E+01   -0.58344E+00  3018   0.360E+00    0.440E+01
RMM:  54    -0.853448333036E+03    0.61005E+00   -0.55640E+00  3169   0.271E+00    0.396E+01
RMM:  55    -0.853051496371E+03    0.39684E+00   -0.16885E+00  3166   0.177E+00    0.359E+01
RMM:  56    -0.883603268639E+03   -0.30552E+02   -0.33843E+01  3194   0.548E+00    0.138E+02
RMM:  57    -0.858345606273E+03    0.25258E+02   -0.38833E+00  2925   0.290E+00    0.679E+01
RMM:  58    -0.853646076147E+03    0.46995E+01   -0.27693E+00  3158   0.199E+00    0.670E+01
RMM:  59    -0.860023015513E+03   -0.63769E+01   -0.64744E+00  3121   0.183E+00    0.103E+02
RMM:  60    -0.856924290351E+03    0.30987E+01   -0.21327E+00  3168   0.181E+00    0.724E+01
RMM:  61    -0.872299905730E+03   -0.15376E+02   -0.66445E+00  3146   0.357E+00    0.104E+02
RMM:  62    -0.864964943553E+03    0.73350E+01   -0.14852E+00  3094   0.163E+00    0.807E+01
RMM:  63    -0.866764069443E+03   -0.17991E+01   -0.66260E-01  3149   0.112E+00    0.763E+01
RMM:  64    -0.867806927810E+03   -0.10429E+01   -0.37543E-01  3127   0.844E-01    0.745E+01
RMM:  65    -0.867675272018E+03    0.13166E+00   -0.10173E-01  3224   0.412E-01    0.746E+01
RMM:  66    -0.857469988691E+03    0.10205E+02   -0.39251E+00  3155   0.238E+00    0.673E+01
RMM:  67    -0.857287852117E+03    0.18214E+00   -0.59038E-01  2853   0.113E+00    0.657E+01
RMM:  68    -0.858538133171E+03   -0.12503E+01   -0.38905E-01  3198   0.674E-01    0.621E+01
RMM:  69    -0.859347647967E+03   -0.80951E+00   -0.36718E-01  3123   0.837E-01    0.607E+01
RMM:  70    -0.861519666084E+03   -0.21720E+01   -0.12750E-01  3102   0.529E-01    0.638E+01
RMM:  71    -0.859381755521E+03    0.21379E+01   -0.39157E+00  3160   0.235E+00    0.625E+01
RMM:  72    -0.864072141890E+03   -0.46904E+01   -0.23253E+00  3130   0.211E+00    0.614E+01
RMM:  73    -0.867079164552E+03   -0.30070E+01   -0.61578E+00  3159   0.301E+00    0.625E+01
RMM:  74    -0.866863166234E+03    0.21600E+00   -0.49245E+00  3170   0.268E+00    0.617E+01
RMM:  75    -0.867890215741E+03   -0.10270E+01   -0.20084E+00  3181   0.177E+00    0.810E+01
RMM:  76    -0.869764994920E+03   -0.18748E+01   -0.18012E+00  3104   0.165E+00    0.646E+01
RMM:  77    -0.869915988302E+03   -0.15099E+00   -0.16013E+00  3183   0.155E+00    0.645E+01
RMM:  78    -0.868988056371E+03    0.92793E+00   -0.56546E-01  3185   0.952E-01    0.639E+01
RMM:  79    -0.868424863980E+03    0.56319E+00   -0.48603E-01  3180   0.851E-01    0.639E+01
RMM:  80    -0.868250682111E+03    0.17418E+00   -0.19267E+00  3127   0.191E+00    0.642E+01
RMM:  81    -0.847628279172E+03    0.20622E+02   -0.75040E+00  3158   0.319E+00    0.631E+01
RMM:  82    -0.853433197653E+03   -0.58049E+01   -0.19723E+00  3011   0.231E+00    0.623E+01
RMM:  83    -0.847749364441E+03    0.56838E+01   -0.33841E+00  3108   0.244E+00    0.611E+01
RMM:  84    -0.843097856275E+03    0.46515E+01   -0.15948E+00  3080   0.195E+00    0.598E+01
RMM:  85    -0.842487736834E+03    0.61012E+00   -0.21075E+00  3077   0.218E+00    0.588E+01
RMM:  86    -0.833366047408E+03    0.91217E+01   -0.44211E+00  3063   0.319E+00    0.550E+01
RMM:  87    -0.837641268151E+03   -0.42752E+01   -0.16133E+00  3153   0.162E+00    0.570E+01
RMM:  88    -0.834107389483E+03    0.35339E+01   -0.53615E-01  3071   0.120E+00    0.541E+01
RMM:  89    -0.833144777213E+03    0.96261E+00   -0.24684E-01  3219   0.577E-01    0.536E+01
RMM:  90    -0.832219739164E+03    0.92504E+00   -0.11069E-01  3208   0.447E-01    0.533E+01
RMM:  91    -0.832302227298E+03   -0.82488E-01   -0.94860E-01  3026   0.138E+00    0.532E+01
RMM:  92    -0.830730569068E+03    0.15717E+01   -0.29529E-01  3045   0.788E-01    0.525E+01
RMM:  93    -0.829565869433E+03    0.11647E+01   -0.38587E-01  3116   0.880E-01    0.517E+01
RMM:  94    -0.827870549849E+03    0.16953E+01   -0.21307E-01  3155   0.656E-01    0.479E+01
RMM:  95    -0.827852791011E+03    0.17759E-01   -0.62351E-02  3323   0.299E-01    0.481E+01
RMM:  96    -0.825147560946E+03    0.27052E+01   -0.84365E-01  2885   0.154E+00    0.474E+01
RMM:  97    -0.826015522594E+03   -0.86796E+00   -0.31255E-01  2856   0.641E-01    0.473E+01
RMM:  98    -0.827092008346E+03   -0.10765E+01   -0.13428E-01  2850   0.658E-01    0.470E+01
RMM:  99    -0.828563160191E+03   -0.14712E+01   -0.24795E-01  3145   0.637E-01    0.468E+01
RMM: 100    -0.829196825046E+03   -0.63366E+00   -0.14084E-01  3144   0.574E-01
   1 F= -.84934912E+03 E0= -.84931813E+03  d E =-.849349E+03  mag=    -8.3084
       N       E                     dE             d eps       ncg     rms          rms(c)
DAV:   1    -0.831930813617E+03   -0.33677E+01   -0.52970E+01  3504   0.464E+01    0.842E+01
RMM:   2    -0.109520183372E+04   -0.26327E+03   -0.13520E+02  3867   0.131E+01    0.164E+02
RMM:   3    -0.255464024410E+04   -0.14594E+04   -0.14256E+03  3226   0.954E+01    0.344E+02
RMM:   4    -0.102748913934E+04    0.15272E+04   -0.22942E+02  3397   0.283E+01    0.122E+02
RMM:   5    -0.940912689112E+03    0.86576E+02   -0.16895E+02  3416   0.237E+01    0.559E+01
RMM:   6    -0.902380933501E+03    0.38532E+02   -0.64788E+01  3642   0.103E+01    0.403E+01
RMM:   7    -0.886227952218E+03    0.16153E+02   -0.19088E+01  3368   0.653E+00    0.349E+01
RMM:   8    -0.869547169844E+03    0.16681E+02   -0.30346E+01  3348   0.742E+00    0.270E+01
RMM:   9    -0.861005254706E+03    0.85419E+01   -0.20746E+01  3258   0.657E+00    0.208E+01
RMM:  10    -0.855712193125E+03    0.52931E+01   -0.25050E+01  3140   0.621E+00    0.152E+01
RMM:  11    -0.854400386636E+03    0.13118E+01   -0.57565E+00  2984   0.361E+00    0.138E+01
RMM:  12    -0.853779885861E+03    0.62050E+00   -0.26378E+00  3154   0.189E+00    0.120E+01
RMM:  13    -0.852463581016E+03    0.13163E+01   -0.34963E+00  3163   0.232E+00    0.877E+00
RMM:  14    -0.851717461050E+03    0.74612E+00   -0.43280E+00  3092   0.235E+00    0.629E+00
RMM:  15    -0.852033025048E+03   -0.31556E+00   -0.19097E+00  3182   0.125E+00    0.566E+00
RMM:  16    -0.852344059763E+03   -0.31103E+00   -0.22373E+00  3036   0.193E+00    0.488E+00
RMM:  17    -0.852275856185E+03    0.68204E-01   -0.84746E-01  3190   0.753E-01    0.424E+00
RMM:  18    -0.852342980403E+03   -0.67124E-01   -0.76080E-01  2969   0.111E+00    0.290E+00
RMM:  19    -0.852305822756E+03    0.37158E-01   -0.45933E-01  2861   0.965E-01    0.282E+00
RMM:  20    -0.852304840508E+03    0.98225E-03   -0.19899E-01  3212   0.320E-01    0.231E+00
RMM:  21    -0.852300316650E+03    0.45239E-02   -0.12197E-01  3099   0.353E-01    0.240E+00
RMM:  22    -0.852290814022E+03    0.95026E-02   -0.86445E-02  2798   0.413E-01    0.166E+00
RMM:  23    -0.852300195686E+03   -0.93817E-02   -0.11663E-01  3004   0.282E-01    0.148E+00
RMM:  24    -0.852298618375E+03    0.15773E-02   -0.16842E-02  2970   0.149E-01    0.130E+00
RMM:  25    -0.852300207842E+03   -0.15895E-02   -0.16154E-01  2870   0.418E-01    0.132E+00
RMM:  26    -0.852298281599E+03    0.19262E-02   -0.35961E-02  2597   0.272E-01    0.782E-01
RMM:  27    -0.852301366137E+03   -0.30845E-02   -0.17629E-02  2626   0.162E-01    0.819E-01
RMM:  28    -0.852298500002E+03    0.28661E-02   -0.93275E-03  2757   0.902E-02    0.709E-01
RMM:  29    -0.852287817609E+03    0.10682E-01   -0.13983E-02  2907   0.130E-01    0.540E-01
RMM:  30    -0.852282571666E+03    0.52459E-02   -0.99168E-03  2771   0.955E-02    0.456E-01
RMM:  31    -0.852280459189E+03    0.21125E-02   -0.32580E-03  2585   0.692E-02    0.452E-01
RMM:  32    -0.852278681968E+03    0.17772E-02   -0.23281E-03  2466   0.523E-02    0.441E-01
RMM:  33    -0.852275611513E+03    0.30705E-02   -0.31763E-03  2574   0.697E-02    0.372E-01
RMM:  34    -0.852274801586E+03    0.80993E-03   -0.93684E-04  2053   0.374E-02    0.355E-01
RMM:  35    -0.852274077903E+03    0.72368E-03   -0.44294E-04  1741   0.348E-02    0.335E-01
RMM:  36    -0.852273753562E+03    0.32434E-03   -0.20929E-04  1506   0.289E-02    0.334E-01
RMM:  37    -0.852273770118E+03   -0.16556E-04   -0.10663E-04  1447   0.244E-02
   2 F= -.87242774E+03 E0= -.87242774E+03  d E =-.230786E+02  mag=     2.0014
       N       E                     dE             d eps       ncg     rms          rms(c)
DAV:   1    -0.852273663214E+03    0.90347E-04   -0.24098E-04  1912   0.449E-02    0.336E-01
RMM:   2    -0.852267931017E+03    0.57322E-02   -0.70857E-02  2984   0.286E-01    0.493E-01
RMM:   3    -0.852267854185E+03    0.76832E-04   -0.53593E-03  2393   0.629E-02    0.410E-01
RMM:   4    -0.852267815747E+03    0.38438E-04   -0.10577E-02  2717   0.118E-01    0.266E-01
RMM:   5    -0.852268672792E+03   -0.85705E-03   -0.43230E-03  2641   0.685E-02    0.150E-01
RMM:   6    -0.852267840432E+03    0.83236E-03   -0.68289E-04  1921   0.477E-02    0.100E-01
RMM:   7    -0.852267406150E+03    0.43428E-03   -0.16729E-03  2254   0.444E-02    0.649E-02
RMM:   8    -0.852267299133E+03    0.10702E-03   -0.45392E-04  1812   0.301E-02    0.442E-02
RMM:   9    -0.852267278257E+03    0.20876E-04   -0.43466E-04  1827   0.312E-02
   3 F= -.87242126E+03 E0= -.87242126E+03  d E =-.230721E+02  mag=     2.0000
       N       E                     dE             d eps       ncg     rms          rms(c)
DAV:   1    -0.852268084153E+03   -0.78502E-03   -0.59562E-04  2504   0.356E-02    0.161E-02
RMM:   2    -0.852268089682E+03   -0.55288E-05   -0.87927E-05  1409   0.238E-02
   4 F= -.87242207E+03 E0= -.87242207E+03  d E =-.230730E+02  mag=     2.0000
       N       E                     dE             d eps       ncg     rms          rms(c)
DAV:   1    -0.852269667865E+03   -0.15837E-02   -0.14237E-03  2824   0.461E-02    0.158E-02
RMM:   2    -0.852269670776E+03   -0.29111E-05   -0.53350E-05  1379   0.198E-02
   5 F= -.87242367E+03 E0= -.87242367E+03  d E =-.230745E+02  mag=     2.0000
       N       E                     dE             d eps       ncg     rms          rms(c)
DAV:   1    -0.852272785950E+03   -0.31181E-02   -0.49434E-03  2664   0.842E-02    0.282E-02
RMM:   2    -0.852272795479E+03   -0.95286E-05   -0.16352E-04  1403   0.333E-02
   6 F= -.87242681E+03 E0= -.87242681E+03  d E =-.230777E+02  mag=     2.0000
       N       E                     dE             d eps       ncg     rms          rms(c)
DAV:   1    -0.852278926093E+03   -0.61401E-02   -0.19997E-02  2608   0.168E-01    0.528E-02
RMM:   2    -0.852278991940E+03   -0.65846E-04   -0.80559E-04  1974   0.642E-02
   7 F= -.87243306E+03 E0= -.87243306E+03  d E =-.230839E+02  mag=     2.0000
       N       E                     dE             d eps       ncg     rms          rms(c)
DAV:   1    -0.852290905807E+03   -0.11980E-01   -0.79776E-02  2552   0.333E-01    0.104E-01
RMM:   2    -0.852291192206E+03   -0.28640E-03   -0.33731E-03  2581   0.119E-01    0.103E-01
RMM:   3    -0.852291271621E+03   -0.79415E-04   -0.85761E-04  1953   0.354E-02
   8 F= -.87244543E+03 E0= -.87244543E+03  d E =-.230963E+02  mag=     2.0000
       N       E                     dE             d eps       ncg     rms          rms(c)
DAV:   1    -0.852313672501E+03   -0.22480E-01   -0.31139E-01  2440   0.659E-01    0.192E-01
RMM:   2    -0.852314758139E+03   -0.10856E-02   -0.12837E-02  2669   0.235E-01    0.186E-01
RMM:   3    -0.852315139679E+03   -0.38154E-03   -0.40467E-03  2907   0.663E-02    0.168E-01
RMM:   4    -0.852315212023E+03   -0.72344E-04   -0.99547E-04  2060   0.367E-02
   9 F= -.87246955E+03 E0= -.87246955E+03  d E =-.231204E+02  mag=     2.0000
       N       E                     dE             d eps       ncg     rms          rms(c)
DAV:   1    -0.852354777722E+03   -0.39638E-01   -0.12267E+00  2384   0.131E+00    0.355E-01
RMM:   2    -0.852358611861E+03   -0.38341E-02   -0.49917E-02  2681   0.468E-01    0.324E-01
RMM:   3    -0.852360133630E+03   -0.15218E-02   -0.16707E-02  3299   0.133E-01    0.274E-01
RMM:   4    -0.852360408189E+03   -0.27456E-03   -0.38683E-03  3047   0.597E-02    0.252E-01
RMM:   5    -0.852360635422E+03   -0.22723E-03   -0.23853E-03  2753   0.500E-02    0.142E-01
RMM:   6    -0.852360689955E+03   -0.54533E-04   -0.10581E-03  2097   0.373E-02    0.671E-02
RMM:   7    -0.852360684082E+03    0.58731E-05   -0.79777E-04  1995   0.364E-02
  10 F= -.87251540E+03 E0= -.87251540E+03  d E =-.231663E+02  mag=     2.0000
       N       E                     dE             d eps       ncg     rms          rms(c)
DAV:   1    -0.852416876880E+03   -0.56187E-01   -0.49464E+00  2336   0.263E+00    0.622E-01
RMM:   2    -0.852433904945E+03   -0.17028E-01   -0.19790E-01  2679   0.945E-01    0.569E-01
RMM:   3    -0.852439547728E+03   -0.56428E-02   -0.60545E-02  3329   0.260E-01    0.498E-01
RMM:   4    -0.852440175700E+03   -0.62797E-03   -0.12471E-02  3362   0.102E-01    0.462E-01
RMM:   5    -0.852440785890E+03   -0.61019E-03   -0.82094E-03  3262   0.831E-02    0.278E-01
RMM:   6    -0.852441084207E+03   -0.29832E-03   -0.36933E-03  2871   0.596E-02    0.148E-01
RMM:   7    -0.852441069044E+03    0.15163E-04   -0.23619E-03  2710   0.507E-02    0.919E-02
RMM:   8    -0.852441079150E+03   -0.10105E-04   -0.12617E-03  2184   0.393E-02    0.717E-02
RMM:   9    -0.852441118603E+03   -0.39453E-04   -0.11457E-03  2138   0.384E-02    0.471E-02
RMM:  10    -0.852441158143E+03   -0.39540E-04   -0.43715E-04  1636   0.330E-02
  11 F= -.87259661E+03 E0= -.87259661E+03  d E =-.232475E+02  mag=     2.0000
       N       E                     dE             d eps       ncg     rms          rms(c)
DAV:   1    -0.852463101633E+03   -0.21983E-01   -0.19708E+01  2304   0.527E+00    0.129E+00
RMM:   2    -0.852531578398E+03   -0.68477E-01   -0.79481E-01  2696   0.189E+00    0.118E+00
RMM:   3    -0.852553940214E+03   -0.22362E-01   -0.23953E-01  3356   0.519E-01    0.104E+00
RMM:   4    -0.852556107684E+03   -0.21675E-02   -0.46414E-02  3440   0.197E-01    0.947E-01
RMM:   5    -0.852558361603E+03   -0.22539E-02   -0.31740E-02  3327   0.165E-01    0.545E-01
RMM:   6    -0.852559418576E+03   -0.10570E-02   -0.14304E-02  3259   0.113E-01    0.301E-01
RMM:   7    -0.852559062517E+03    0.35606E-03   -0.92863E-03  3265   0.907E-02    0.193E-01
RMM:   8    -0.852559038388E+03    0.24130E-04   -0.43205E-03  2768   0.593E-02    0.153E-01
RMM:   9    -0.852559137669E+03   -0.99281E-04   -0.49048E-03  3068   0.657E-02    0.937E-02
RMM:  10    -0.852559242276E+03   -0.10461E-03   -0.14855E-03  2122   0.389E-02    0.793E-02
RMM:  11    -0.852559303466E+03   -0.61190E-04   -0.82799E-04  1871   0.346E-02
  12 F= -.87270980E+03 E0= -.87270980E+03  d E =-.233607E+02  mag=     2.0000
       N       E                     dE             d eps       ncg     rms          rms(c)
DAV:   1    -0.852850284207E+03   -0.29104E+00   -0.29250E+01  2320   0.658E+00    0.157E+00
RMM:   2    -0.852943177419E+03   -0.92893E-01   -0.11130E+00  2570   0.236E+00    0.174E+00
RMM:   3    -0.852979688828E+03   -0.36511E-01   -0.36783E-01  3257   0.684E-01    0.169E+00
RMM:   4    -0.852983994628E+03   -0.43058E-02   -0.75122E-02  3353   0.248E-01    0.163E+00
RMM:   5    -0.852995231019E+03   -0.11236E-01   -0.79404E-02  3227   0.244E-01    0.127E+00
RMM:   6    -0.853009911474E+03   -0.14680E-01   -0.44521E-02  3142   0.195E-01    0.100E+00
RMM:   7    -0.853002568371E+03    0.73431E-02   -0.16091E-02  3053   0.138E-01    0.795E-01
RMM:   8    -0.852994231975E+03    0.83364E-02   -0.17570E-02  3068   0.130E-01    0.622E-01
RMM:   9    -0.852988613608E+03    0.56184E-02   -0.18860E-02  3027   0.133E-01    0.362E-01
RMM:  10    -0.852987914665E+03    0.69894E-03   -0.56411E-03  3005   0.681E-02    0.249E-01
RMM:  11    -0.852987610843E+03    0.30382E-03   -0.39098E-03  2967   0.645E-02    0.994E-02
RMM:  12    -0.852987677480E+03   -0.66637E-04   -0.86392E-04  1994   0.328E-02
  13 F= -.87314406E+03 E0= -.87314406E+03  d E =-.434261E+00  mag=     2.0000
       N       E                     dE             d eps       ncg     rms          rms(c)
DAV:   1    -0.852656061246E+03    0.33155E+00   -0.26469E+02  2664   0.204E+01    0.602E+00
RMM:   2    -0.853432239294E+03   -0.77618E+00   -0.89874E+00  2610   0.648E+00    0.569E+00
RMM:   3    -0.853703589765E+03   -0.27135E+00   -0.28450E+00  3323   0.184E+00    0.481E+00
RMM:   4    -0.853725907254E+03   -0.22317E-01   -0.64107E-01  3378   0.758E-01    0.392E+00
RMM:   5    -0.853781804528E+03   -0.55897E-01   -0.48322E-01  3234   0.652E-01    0.176E+00
RMM:   6    -0.853752354994E+03    0.29450E-01   -0.15250E-01  3315   0.390E-01    0.113E+00
RMM:   7    -0.853738259775E+03    0.14095E-01   -0.16176E-01  3248   0.376E-01    0.638E-01
RMM:   8    -0.853738710456E+03   -0.45068E-03   -0.36364E-02  3356   0.152E-01    0.526E-01
RMM:   9    -0.853738659875E+03    0.50581E-04   -0.30969E-02  3239   0.169E-01    0.300E-01
RMM:  10    -0.853740633888E+03   -0.19740E-02   -0.20200E-02  3369   0.116E-01    0.261E-01
RMM:  11    -0.853740606292E+03    0.27596E-04   -0.84750E-03  3139   0.815E-02    0.185E-01
RMM:  12    -0.853740816669E+03   -0.21038E-03   -0.64602E-03  3113   0.656E-02    0.130E-01
RMM:  13    -0.853741039521E+03   -0.22285E-03   -0.28946E-03  2598   0.515E-02    0.809E-02
RMM:  14    -0.853741257543E+03   -0.21802E-03   -0.22572E-03  2318   0.421E-02    0.385E-02
RMM:  15    -0.853741335979E+03   -0.78437E-04   -0.92116E-04  1789   0.377E-02
  14 F= -.87391873E+03 E0= -.87391873E+03  d E =-.120894E+01  mag=     2.0000
       N       E                     dE             d eps       ncg     rms          rms(c)
DAV:   1    -0.853587280535E+03    0.15398E+00   -0.42629E+01  2336   0.799E+00    0.236E+00
RMM:   2    -0.853735464795E+03   -0.14818E+00   -0.17495E+00  2632   0.283E+00    0.261E+00
RMM:   3    -0.853788615319E+03   -0.53151E-01   -0.53783E-01  3314   0.794E-01    0.254E+00
RMM:   4    -0.853793133394E+03   -0.45181E-02   -0.11596E-01  3388   0.310E-01    0.227E+00
RMM:   5    -0.853828601422E+03   -0.35468E-01   -0.21913E-01  3157   0.449E-01    0.153E+00
RMM:   6    -0.853841744192E+03   -0.13143E-01   -0.53623E-02  3182   0.236E-01    0.126E+00
RMM:   7    -0.853814472863E+03    0.27271E-01   -0.50228E-02  3115   0.239E-01    0.948E-01
RMM:   8    -0.853802261691E+03    0.12211E-01   -0.42380E-02  3067   0.193E-01    0.619E-01
RMM:   9    -0.853799213273E+03    0.30484E-02   -0.18390E-02  3123   0.122E-01    0.365E-01
RMM:  10    -0.853798566121E+03    0.64715E-03   -0.96816E-03  3108   0.910E-02    0.141E-01
RMM:  11    -0.853798791342E+03   -0.22522E-03   -0.35327E-03  2952   0.554E-02    0.876E-02
RMM:  12    -0.853798808107E+03   -0.16765E-04   -0.81541E-04  1866   0.327E-02
  15 F= -.87398471E+03 E0= -.87398471E+03  d E =-.127492E+01  mag=     2.0000
       N       E                     dE             d eps       ncg     rms          rms(c)
DAV:   1    -0.853935621092E+03   -0.13683E+00   -0.28634E+01  2392   0.686E+00    0.154E+00
RMM:   2    -0.854058584524E+03   -0.12296E+00   -0.15170E+00  2724   0.260E+00    0.163E+00
RMM:   3    -0.854103373670E+03   -0.44789E-01   -0.46914E-01  3380   0.717E-01    0.153E+00
RMM:   4    -0.854106247682E+03   -0.28740E-02   -0.10085E-01  3424   0.305E-01    0.134E+00
RMM:   5    -0.854114144514E+03   -0.78968E-02   -0.65160E-02  3364   0.222E-01    0.914E-01
RMM:   6    -0.854115540559E+03   -0.13960E-02   -0.25650E-02  3287   0.164E-01    0.510E-01
RMM:   7    -0.854114831845E+03    0.70871E-03   -0.16021E-02  3281   0.124E-01    0.383E-01
RMM:   8    -0.854112942736E+03    0.18891E-02   -0.14190E-02  3192   0.108E-01    0.235E-01
RMM:   9    -0.854112715730E+03    0.22701E-03   -0.88145E-03  3183   0.826E-02    0.148E-01
RMM:  10    -0.854112828888E+03   -0.11316E-03   -0.23713E-03  2466   0.480E-02    0.142E-01
RMM:  11    -0.854112948279E+03   -0.11939E-03   -0.16091E-03  1978   0.351E-02    0.163E-01
RMM:  12    -0.854112989734E+03   -0.41455E-04   -0.77774E-04  1807   0.404E-02
  16 F= -.87429863E+03 E0= -.87429863E+03  d E =-.313915E+00  mag=     2.0000
       N       E                     dE             d eps       ncg     rms          rms(c)
DAV:   1    -0.854025179263E+03    0.87769E-01   -0.53965E+01  2312   0.949E+00    0.223E+00
RMM:   2    -0.854267066694E+03   -0.24189E+00   -0.30115E+00  2687   0.375E+00    0.232E+00
RMM:   3    -0.854362086512E+03   -0.95020E-01   -0.98262E-01  3345   0.108E+00    0.215E+00
RMM:   4    -0.854368343235E+03   -0.62567E-02   -0.20868E-01  3401   0.458E-01    0.184E+00
RMM:   5    -0.854384915575E+03   -0.16572E-01   -0.13363E-01  3380   0.319E-01    0.125E+00
RMM:   6    -0.854385928624E+03   -0.10130E-02   -0.51567E-02  3341   0.229E-01    0.704E-01
RMM:   7    -0.854384448710E+03    0.14799E-02   -0.31792E-02  3329   0.171E-01    0.497E-01
RMM:   8    -0.854381329040E+03    0.31197E-02   -0.27858E-02  3244   0.145E-01    0.321E-01
RMM:   9    -0.854380978619E+03    0.35042E-03   -0.16044E-02  3264   0.109E-01    0.213E-01
RMM:  10    -0.854381234910E+03   -0.25629E-03   -0.51134E-03  2957   0.611E-02    0.209E-01
RMM:  11    -0.854381488361E+03   -0.25345E-03   -0.33534E-03  2435   0.516E-02    0.247E-01
RMM:  12    -0.854381689208E+03   -0.20085E-03   -0.28090E-03  2578   0.596E-02    0.124E-01
RMM:  13    -0.854381870801E+03   -0.18159E-03   -0.19153E-03  2441   0.466E-02    0.443E-02
RMM:  14    -0.854381928231E+03   -0.57430E-04   -0.82789E-04  1822   0.341E-02
  17 F= -.87456723E+03 E0= -.87456723E+03  d E =-.582514E+00  mag=     2.0000
       N       E                     dE             d eps       ncg     rms          rms(c)
DAV:   1    -0.853273619466E+03    0.11083E+01   -0.21895E+02  2640   0.196E+01    0.503E+00
RMM:   2    -0.854015773040E+03   -0.74215E+00   -0.92987E+00  2717   0.646E+00    0.480E+00
RMM:   3    -0.854285447562E+03   -0.26967E+00   -0.28683E+00  3394   0.179E+00    0.427E+00
RMM:   4    -0.854305921129E+03   -0.20474E-01   -0.79058E-01  3447   0.880E-01    0.330E+00
RMM:   5    -0.854345322430E+03   -0.39401E-01   -0.35751E-01  3379   0.590E-01    0.164E+00
RMM:   6    -0.854330800221E+03    0.14522E-01   -0.18748E-01  3386   0.446E-01    0.893E-01
RMM:   7    -0.854327057005E+03    0.37432E-02   -0.12759E-01  3400   0.334E-01    0.484E-01
RMM:   8    -0.854328136707E+03   -0.10797E-02   -0.42759E-02  3535   0.159E-01    0.397E-01
RMM:   9    -0.854328887281E+03   -0.75057E-03   -0.24613E-02  3465   0.144E-01    0.299E-01
RMM:  10    -0.854330582475E+03   -0.16952E-02   -0.19068E-02  3440   0.114E-01    0.219E-01
RMM:  11    -0.854331202036E+03   -0.61956E-03   -0.88661E-03  3102   0.829E-02    0.140E-01
RMM:  12    -0.854331703285E+03   -0.50125E-03   -0.79706E-03  3202   0.758E-02    0.780E-02
RMM:  13    -0.854332030675E+03   -0.32739E-03   -0.34906E-03  2375   0.542E-02    0.558E-02
RMM:  14    -0.854332296392E+03   -0.26572E-03   -0.29380E-03  2116   0.456E-02    0.404E-02
RMM:  15    -0.854332433119E+03   -0.13673E-03   -0.14885E-03  1979   0.442E-02    0.197E-02
RMM:  16    -0.854332557197E+03   -0.12408E-03   -0.12946E-03  1889   0.344E-02    0.300E-02
RMM:  17    -0.854332623505E+03   -0.66307E-04   -0.62689E-04  1758   0.326E-02
  18 F= -.87451733E+03 E0= -.87451733E+03  d E =-.532622E+00  mag=     2.0000
       N       E                     dE             d eps       ncg     rms          rms(c)
DAV:   1    -0.854015314511E+03    0.31724E+00   -0.75819E+01  2360   0.115E+01    0.236E+00
RMM:   2    -0.854343142824E+03   -0.32783E+00   -0.40888E+00  2688   0.421E+00    0.324E+00
RMM:   3    -0.854446214184E+03   -0.10307E+00   -0.10901E+00  3381   0.104E+00    0.315E+00
RMM:   4    -0.854448986960E+03   -0.27728E-02   -0.20664E-01  3445   0.441E-01    0.282E+00
RMM:   5    -0.854464117731E+03   -0.15131E-01   -0.15223E-01  3344   0.350E-01    0.208E+00
RMM:   6    -0.854477584507E+03   -0.13467E-01   -0.66800E-02  3284   0.232E-01    0.134E+00
RMM:   7    -0.854477815013E+03   -0.23051E-03   -0.33505E-02  3063   0.221E-01    0.919E-01
RMM:   8    -0.854466185692E+03    0.11629E-01   -0.30853E-02  3156   0.159E-01    0.719E-01
RMM:   9    -0.854459141177E+03    0.70445E-02   -0.27480E-02  3090   0.162E-01    0.406E-01
RMM:  10    -0.854457965851E+03    0.11753E-02   -0.11395E-02  3135   0.101E-01    0.268E-01
RMM:  11    -0.854457856804E+03    0.10905E-03   -0.32694E-03  2852   0.581E-02    0.178E-01
RMM:  12    -0.854457855186E+03    0.16175E-05   -0.28867E-03  2914   0.601E-02    0.594E-02
RMM:  13    -0.854457925276E+03   -0.70090E-04   -0.82813E-04  1959   0.345E-02
  19 F= -.87464297E+03 E0= -.87464297E+03  d E =-.658257E+00  mag=     2.0000
       N       E                     dE             d eps       ncg     rms          rms(c)
DAV:   1    -0.854507238319E+03   -0.49383E-01   -0.17615E+01  2416   0.543E+00    0.928E-01
RMM:   2    -0.854553711980E+03   -0.46474E-01   -0.56357E-01  2670   0.155E+00    0.108E+00
RMM:   3    -0.854566105246E+03   -0.12393E-01   -0.13387E-01  3293   0.389E-01    0.102E+00
RMM:   4    -0.854565722519E+03    0.38273E-03   -0.24025E-02  3397   0.160E-01    0.915E-01
RMM:   5    -0.854567869969E+03   -0.21474E-02   -0.23855E-02  3194   0.156E-01    0.581E-01
RMM:   6    -0.854568648689E+03   -0.77872E-03   -0.80777E-03  3113   0.104E-01    0.351E-01
RMM:   7    -0.854567336907E+03    0.13118E-02   -0.53965E-03  3154   0.804E-02    0.253E-01
RMM:   8    -0.854566515271E+03    0.82164E-03   -0.25746E-03  2858   0.565E-02    0.188E-01
RMM:   9    -0.854566021199E+03    0.49407E-03   -0.27482E-03  2802   0.593E-02    0.994E-02
RMM:  10    -0.854565984795E+03    0.36404E-04   -0.11706E-03  2366   0.447E-02    0.530E-02
RMM:  11    -0.854566023243E+03   -0.38448E-04   -0.38746E-04  1659   0.387E-02
  20 F= -.87475316E+03 E0= -.87475316E+03  d E =-.110192E+00  mag=     2.0000
       N       E                     dE             d eps       ncg     rms          rms(c)
DAV:   1    -0.854553138145E+03    0.12847E-01   -0.25667E+01  2320   0.652E+00    0.112E+00
RMM:   2    -0.854622379866E+03   -0.69242E-01   -0.83226E-01  2695   0.188E+00    0.131E+00
RMM:   3    -0.854640590825E+03   -0.18211E-01   -0.19645E-01  3339   0.464E-01    0.125E+00
RMM:   4    -0.854640067011E+03    0.52381E-03   -0.37017E-02  3414   0.195E-01    0.112E+00
RMM:   5    -0.854642956920E+03   -0.28899E-02   -0.35862E-02  3251   0.187E-01    0.717E-01
RMM:   6    -0.854644422340E+03   -0.14654E-02   -0.13213E-02  3179   0.124E-01    0.432E-01
RMM:   7    -0.854642628105E+03    0.17942E-02   -0.83453E-03  3246   0.986E-02    0.306E-01
RMM:   8    -0.854641495662E+03    0.11324E-02   -0.44542E-03  3143   0.654E-02    0.228E-01
RMM:   9    -0.854640792953E+03    0.70271E-03   -0.34842E-03  2933   0.604E-02    0.135E-01
RMM:  10    -0.854640682596E+03    0.11036E-03   -0.20919E-03  2802   0.536E-02    0.685E-02
RMM:  11    -0.854640717226E+03   -0.34629E-04   -0.50044E-04  1754   0.357E-02
  21 F= -.87483039E+03 E0= -.87483039E+03  d E =-.187425E+00  mag=     2.0000
       N       E                     dE             d eps       ncg     rms          rms(c)
DAV:   1    -0.854245345316E+03    0.39534E+00   -0.10248E+02  2304   0.131E+01    0.237E+00
RMM:   2    -0.854539263057E+03   -0.29392E+00   -0.35178E+00  2759   0.378E+00    0.273E+00
RMM:   3    -0.854608390468E+03   -0.69127E-01   -0.75238E-01  3372   0.893E-01    0.256E+00
RMM:   4    -0.854604733100E+03    0.36574E-02   -0.16241E-01  3449   0.416E-01    0.224E+00
RMM:   5    -0.854614374744E+03   -0.96416E-02   -0.12585E-01  3296   0.352E-01    0.148E+00
RMM:   6    -0.854620778607E+03   -0.64039E-02   -0.50831E-02  3269   0.236E-01    0.902E-01
RMM:   7    -0.854612750491E+03    0.80281E-02   -0.33744E-02  3320   0.200E-01    0.606E-01
RMM:   8    -0.854608280535E+03    0.44700E-02   -0.17035E-02  3290   0.124E-01    0.445E-01
RMM:   9    -0.854605418171E+03    0.28624E-02   -0.12634E-02  3141   0.106E-01    0.266E-01
RMM:  10    -0.854604880484E+03    0.53769E-03   -0.74428E-03  3190   0.848E-02    0.143E-01
RMM:  11    -0.854604952243E+03   -0.71759E-04   -0.24574E-03  2985   0.519E-02    0.751E-02
RMM:  12    -0.854604970430E+03   -0.18187E-04   -0.70399E-04  1940   0.353E-02
  22 F= -.87479976E+03 E0= -.87479976E+03  d E =-.156789E+00  mag=     2.0000
       N       E                     dE             d eps       ncg     rms          rms(c)
DAV:   1    -0.854508502787E+03    0.96449E-01   -0.44796E+01  2512   0.865E+00    0.149E+00
RMM:   2    -0.854630947893E+03   -0.12245E+00   -0.14814E+00  2752   0.243E+00    0.178E+00
RMM:   3    -0.854657919311E+03   -0.26971E-01   -0.29980E-01  3310   0.564E-01    0.172E+00
RMM:   4    -0.854656814934E+03    0.11044E-02   -0.50810E-02  3424   0.228E-01    0.158E+00
RMM:   5    -0.854661299948E+03   -0.44850E-02   -0.60167E-02  3152   0.254E-01    0.975E-01
RMM:   6    -0.854663288927E+03   -0.19890E-02   -0.20088E-02  3076   0.165E-01    0.557E-01
RMM:   7    -0.854660303557E+03    0.29854E-02   -0.11558E-02  3218   0.120E-01    0.440E-01
RMM:   8    -0.854658156849E+03    0.21467E-02   -0.63958E-03  3126   0.792E-02    0.333E-01
RMM:   9    -0.854656595119E+03    0.15617E-02   -0.62116E-03  2978   0.859E-02    0.168E-01
RMM:  10    -0.854656436321E+03    0.15880E-03   -0.27470E-03  2893   0.551E-02    0.876E-02
RMM:  11    -0.854656465909E+03   -0.29588E-04   -0.72807E-04  2090   0.419E-02
  23 F= -.87484787E+03 E0= -.87484787E+03  d E =-.204900E+00  mag=     2.0000
       N       E                     dE             d eps       ncg     rms          rms(c)
DAV:   1    -0.854642735474E+03    0.13701E-01   -0.15547E+01  2400   0.514E+00    0.935E-01
RMM:   2    -0.854691586764E+03   -0.48851E-01   -0.59421E-01  2797   0.154E+00    0.932E-01
RMM:   3    -0.854702809213E+03   -0.11222E-01   -0.12748E-01  3383   0.375E-01    0.892E-01
RMM:   4    -0.854701934454E+03    0.87476E-03   -0.27919E-02  3341   0.176E-01    0.738E-01
RMM:   5    -0.854704036931E+03   -0.21025E-02   -0.22127E-02  3264   0.143E-01    0.434E-01
RMM:   6    -0.854703737260E+03    0.29967E-03   -0.64583E-03  3031   0.964E-02    0.248E-01
RMM:   7    -0.854703431525E+03    0.30574E-03   -0.47053E-03  3203   0.707E-02    0.176E-01
RMM:   8    -0.854703094823E+03    0.33670E-03   -0.19462E-03  2625   0.444E-02    0.132E-01
RMM:   9    -0.854702844467E+03    0.25036E-03   -0.31362E-03  2881   0.595E-02    0.659E-02
RMM:  10    -0.854702882929E+03   -0.38462E-04   -0.80482E-04  2134   0.379E-02
  24 F= -.87490341E+03 E0= -.87490341E+03  d E =-.555390E-01  mag=     2.0000
       N       E                     dE             d eps       ncg     rms          rms(c)
DAV:   1    -0.854688448017E+03    0.14396E-01   -0.73550E+00  2400   0.353E+00    0.643E-01
RMM:   2    -0.854711930404E+03   -0.23482E-01   -0.27837E-01  2777   0.106E+00    0.660E-01
RMM:   3    -0.854717529678E+03   -0.55993E-02   -0.62792E-02  3388   0.264E-01    0.644E-01
RMM:   4    -0.854717184532E+03    0.34515E-03   -0.14022E-02  3301   0.123E-01    0.545E-01
RMM:   5    -0.854718270788E+03   -0.10863E-02   -0.12486E-02  3244   0.108E-01    0.322E-01
RMM:   6    -0.854718388958E+03   -0.11817E-03   -0.38298E-03  2982   0.704E-02    0.187E-01
RMM:   7    -0.854718271144E+03    0.11781E-03   -0.22475E-03  2827   0.517E-02    0.143E-01
RMM:   8    -0.854718032501E+03    0.23864E-03   -0.13358E-03  2362   0.402E-02    0.108E-01
RMM:   9    -0.854717892392E+03    0.14011E-03   -0.22797E-03  2758   0.522E-02    0.548E-02
RMM:  10    -0.854717915035E+03   -0.22643E-04   -0.44949E-04  1722   0.317E-02
  25 F= -.87492472E+03 E0= -.87492472E+03  d E =-.768473E-01  mag=     2.0000
       N       E                     dE             d eps       ncg     rms          rms(c)
DAV:   1    -0.854587362871E+03    0.13053E+00   -0.29341E+01  2304   0.706E+00    0.137E+00
RMM:   2    -0.854684265642E+03   -0.96903E-01   -0.11588E+00  2832   0.214E+00    0.139E+00
RMM:   3    -0.854705512256E+03   -0.21247E-01   -0.24081E-01  3436   0.512E-01    0.135E+00
RMM:   4    -0.854703731628E+03    0.17806E-02   -0.56203E-02  3399   0.246E-01    0.112E+00
RMM:   5    -0.854708505849E+03   -0.47742E-02   -0.50194E-02  3290   0.215E-01    0.628E-01
RMM:   6    -0.854707479774E+03    0.10261E-02   -0.13231E-02  3100   0.139E-01    0.377E-01
RMM:   7    -0.854706696798E+03    0.78298E-03   -0.10394E-02  3334   0.103E-01    0.277E-01
RMM:   8    -0.854705891269E+03    0.80553E-03   -0.46275E-03  3128   0.633E-02    0.198E-01
RMM:   9    -0.854705322380E+03    0.56889E-03   -0.53634E-03  3089   0.736E-02    0.106E-01
RMM:  10    -0.854705429034E+03   -0.10665E-03   -0.24419E-03  2905   0.516E-02    0.803E-02
RMM:  11    -0.854705418312E+03    0.10722E-04   -0.48988E-04  1787   0.338E-02
  26 F= -.87492482E+03 E0= -.87492482E+03  d E =-.769481E-01  mag=     2.0000
       N       E                     dE             d eps       ncg     rms          rms(c)
DAV:   1    -0.854680987412E+03    0.24442E-01   -0.10259E+01  2464   0.417E+00    0.790E-01
RMM:   2    -0.854713457067E+03   -0.32470E-01   -0.40231E-01  2803   0.125E+00    0.845E-01
RMM:   3    -0.854720247094E+03   -0.67900E-02   -0.77462E-02  3317   0.293E-01    0.824E-01
RMM:   4    -0.854719601838E+03    0.64526E-03   -0.20780E-02  3222   0.162E-01    0.696E-01
RMM:   5    -0.854721588099E+03   -0.19863E-02   -0.15876E-02  3139   0.125E-01    0.436E-01
RMM:   6    -0.854721011296E+03    0.57680E-03   -0.40546E-03  2833   0.856E-02    0.265E-01
RMM:   7    -0.854720546440E+03    0.46486E-03   -0.37412E-03  2960   0.680E-02    0.184E-01
RMM:   8    -0.854720197246E+03    0.34919E-03   -0.87107E-04  2060   0.376E-02    0.146E-01
RMM:   9    -0.854719820795E+03    0.37645E-03   -0.20017E-03  2626   0.510E-02    0.844E-02
RMM:  10    -0.854719784714E+03    0.36080E-04   -0.14248E-03  2480   0.482E-02    0.455E-02
RMM:  11    -0.854719819477E+03   -0.34763E-04   -0.32488E-04  1603   0.335E-02
  27 F= -.87493177E+03 E0= -.87493177E+03  d E =-.838955E-01  mag=     2.0000
       N       E                     dE             d eps       ncg     rms          rms(c)
DAV:   1    -0.854705436837E+03    0.14348E-01   -0.26179E+00  2368   0.211E+00    0.408E-01
RMM:   2    -0.854713444522E+03   -0.80077E-02   -0.10274E-01  2804   0.631E-01    0.425E-01
RMM:   3    -0.854715103418E+03   -0.16589E-02   -0.19148E-02  3210   0.145E-01    0.410E-01
RMM:   4    -0.854714977564E+03    0.12585E-03   -0.52412E-03  3009   0.850E-02    0.337E-01
RMM:   5    -0.854715589797E+03   -0.61223E-03   -0.40999E-03  2887   0.677E-02    0.203E-01
RMM:   6    -0.854715352199E+03    0.23760E-03   -0.93297E-04  2118   0.521E-02    0.124E-01
RMM:   7    -0.854715218942E+03    0.13326E-03   -0.11937E-03  2300   0.445E-02    0.854E-02
RMM:   8    -0.854715151003E+03    0.67938E-04   -0.22815E-04  1493   0.283E-02
  28 F= -.87493087E+03 E0= -.87493087E+03  d E =-.829959E-01  mag=     2.0000
       N       E                     dE             d eps       ncg     rms          rms(c)
DAV:   1    -0.854715402056E+03   -0.18311E-03   -0.93496E-01  2368   0.126E+00    0.230E-01
RMM:   2    -0.854718068611E+03   -0.26666E-02   -0.32394E-02  2701   0.364E-01    0.263E-01
RMM:   3    -0.854718630220E+03   -0.56161E-03   -0.63385E-03  3002   0.879E-02    0.262E-01
RMM:   4    -0.854718541290E+03    0.88931E-04   -0.11109E-03  2241   0.478E-02    0.232E-01
RMM:   5    -0.854718820168E+03   -0.27888E-03   -0.25445E-03  2718   0.574E-02    0.142E-01
RMM:   6    -0.854718832543E+03   -0.12374E-04   -0.39535E-04  1671   0.383E-02
  29 F= -.87493228E+03 E0= -.87493228E+03  d E =-.844092E-01  mag=     2.0000
       N       E                     dE             d eps       ncg     rms          rms(c)
DAV:   1    -0.854682006741E+03    0.36813E-01   -0.25671E+01  2304   0.622E+00    0.115E+00
RMM:   2    -0.854742970268E+03   -0.60964E-01   -0.68438E-01  2747   0.157E+00    0.109E+00
RMM:   3    -0.854752131016E+03   -0.91607E-02   -0.12043E-01  3236   0.376E-01    0.973E-01
RMM:   4    -0.854751138928E+03    0.99209E-03   -0.26523E-02  3303   0.166E-01    0.766E-01
RMM:   5    -0.854751341204E+03   -0.20228E-03   -0.16940E-02  3115   0.141E-01    0.374E-01
RMM:   6    -0.854751539254E+03   -0.19805E-03   -0.55095E-03  3141   0.789E-02    0.227E-01
RMM:   7    -0.854751027629E+03    0.51163E-03   -0.46176E-03  3060   0.699E-02    0.141E-01
RMM:   8    -0.854750872344E+03    0.15529E-03   -0.13206E-03  2358   0.424E-02    0.103E-01
RMM:   9    -0.854750814249E+03    0.58095E-04   -0.11930E-03  2326   0.424E-02    0.502E-02
RMM:  10    -0.854750862536E+03   -0.48287E-04   -0.58600E-04  1875   0.344E-02
  30 F= -.87497042E+03 E0= -.87497042E+03  d E =-.381437E-01  mag=     2.0000
       N       E                     dE             d eps       ncg     rms          rms(c)
DAV:   1    -0.854744364496E+03    0.64498E-02   -0.40118E+00  2544   0.246E+00    0.458E-01
RMM:   2    -0.854754080563E+03   -0.97161E-02   -0.10718E-01  2769   0.617E-01    0.440E-01
RMM:   3    -0.854755591713E+03   -0.15112E-02   -0.19225E-02  3276   0.146E-01    0.396E-01
RMM:   4    -0.854755506465E+03    0.85248E-04   -0.45138E-03  3218   0.687E-02    0.312E-01
RMM:   5    -0.854755648051E+03   -0.14159E-03   -0.34538E-03  2964   0.636E-02    0.137E-01
RMM:   6    -0.854755670723E+03   -0.22672E-04   -0.85566E-04  2083   0.368E-02
  31 F= -.87497765E+03 E0= -.87497765E+03  d E =-.453742E-01  mag=     2.0000
       N       E                     dE             d eps       ncg     rms          rms(c)
DAV:   1    -0.854705534286E+03    0.50114E-01   -0.16025E+01  2304   0.492E+00    0.975E-01
RMM:   2    -0.854745312217E+03   -0.39778E-01   -0.43907E-01  2804   0.124E+00    0.903E-01
RMM:   3    -0.854751023979E+03   -0.57118E-02   -0.74262E-02  3279   0.286E-01    0.787E-01
RMM:   4    -0.854751004745E+03    0.19235E-04   -0.20250E-02  3328   0.143E-01    0.601E-01
RMM:   5    -0.854751365885E+03   -0.36114E-03   -0.10461E-02  3202   0.107E-01    0.291E-01
RMM:   6    -0.854751299104E+03    0.66781E-04   -0.35705E-03  3114   0.642E-02    0.167E-01
RMM:   7    -0.854751139137E+03    0.15997E-03   -0.35636E-03  3043   0.613E-02    0.985E-02
RMM:   8    -0.854751101705E+03    0.37433E-04   -0.84779E-04  2031   0.347E-02
  32 F= -.87497794E+03 E0= -.87497794E+03  d E =-.456609E-01  mag=     2.0000
       N       E                     dE             d eps       ncg     rms          rms(c)
DAV:   1    -0.854741506118E+03    0.96330E-02   -0.57486E+00  2624   0.294E+00    0.567E-01
RMM:   2    -0.854754682679E+03   -0.13177E-01   -0.14788E-01  2740   0.725E-01    0.541E-01
RMM:   3    -0.854756386211E+03   -0.17035E-02   -0.23117E-02  3052   0.169E-01    0.484E-01
RMM:   4    -0.854756220958E+03    0.16525E-03   -0.48402E-03  2892   0.780E-02    0.374E-01
RMM:   5    -0.854756354946E+03   -0.13399E-03   -0.37977E-03  2790   0.707E-02    0.156E-01
RMM:   6    -0.854756251590E+03    0.10336E-03   -0.61594E-04  1878   0.407E-02    0.101E-01
RMM:   7    -0.854756152668E+03    0.98922E-04   -0.98681E-04  2142   0.413E-02
  33 F= -.87498007E+03 E0= -.87498007E+03  d E =-.477919E-01  mag=     2.0000
       N       E                     dE             d eps       ncg     rms          rms(c)
DAV:   1    -0.854751056783E+03    0.51948E-02   -0.14353E+00  2416   0.147E+00    0.274E-01
RMM:   2    -0.854754273866E+03   -0.32171E-02   -0.36794E-02  2741   0.357E-01    0.270E-01
RMM:   3    -0.854754649570E+03   -0.37570E-03   -0.52376E-03  2827   0.803E-02    0.245E-01
RMM:   4    -0.854754546017E+03    0.10355E-03   -0.10958E-03  2074   0.468E-02    0.187E-01
RMM:   5    -0.854754598170E+03   -0.52153E-04   -0.13998E-03  2330   0.469E-02    0.802E-02
RMM:   6    -0.854754568415E+03    0.29755E-04   -0.17334E-04  1438   0.297E-02
  34 F= -.87497995E+03 E0= -.87497995E+03  d E =-.476670E-01  mag=     2.0000
       N       E                     dE             d eps       ncg     rms          rms(c)
DAV:   1    -0.854708381516E+03    0.46217E-01   -0.14593E+01  2304   0.496E+00    0.779E-01
RMM:   2    -0.854757292272E+03   -0.48911E-01   -0.60053E-01  2881   0.150E+00    0.833E-01
RMM:   3    -0.854767353249E+03   -0.10061E-01   -0.11919E-01  3410   0.341E-01    0.741E-01
RMM:   4    -0.854766699940E+03    0.65331E-03   -0.29736E-02  3321   0.180E-01    0.638E-01
RMM:   5    -0.854768202931E+03   -0.15030E-02   -0.17015E-02  3297   0.117E-01    0.453E-01
RMM:   6    -0.854768103066E+03    0.99864E-04   -0.52152E-03  3036   0.780E-02    0.302E-01
RMM:   7    -0.854767922952E+03    0.18011E-03   -0.58038E-03  3210   0.825E-02    0.128E-01
RMM:   8    -0.854767912032E+03    0.10920E-04   -0.15545E-03  2242   0.392E-02    0.102E-01
RMM:   9    -0.854767802069E+03    0.10996E-03   -0.13173E-03  2323   0.417E-02    0.700E-02
RMM:  10    -0.854767815785E+03   -0.13717E-04   -0.17211E-03  2574   0.462E-02    0.422E-02
RMM:  11    -0.854767897293E+03   -0.81507E-04   -0.83273E-04  2149   0.396E-02
  35 F= -.87500141E+03 E0= -.87500141E+03  d E =-.214614E-01  mag=     2.0000
       N       E                     dE             d eps       ncg     rms          rms(c)
DAV:   1    -0.854766534948E+03    0.12808E-02   -0.27838E-01  2744   0.685E-01    0.957E-02
RMM:   2    -0.854767477359E+03   -0.94241E-03   -0.10568E-02  2710   0.208E-01    0.113E-01
RMM:   3    -0.854767713011E+03   -0.23565E-03   -0.26993E-03  2817   0.529E-02    0.108E-01
RMM:   4    -0.854767721448E+03   -0.84364E-05   -0.61335E-04  1838   0.305E-02
  36 F= -.87500235E+03 E0= -.87500235E+03  d E =-.224023E-01  mag=     2.0000
       N       E                     dE             d eps       ncg     rms          rms(c)
DAV:   1    -0.854753022458E+03    0.14691E-01   -0.82740E+00  2336   0.375E+00    0.668E-01
RMM:   2    -0.854775431097E+03   -0.22409E-01   -0.25297E-01  2762   0.101E+00    0.583E-01
RMM:   3    -0.854779272603E+03   -0.38415E-02   -0.49017E-02  3298   0.237E-01    0.499E-01
RMM:   4    -0.854779104937E+03    0.16767E-03   -0.12869E-02  3221   0.127E-01    0.359E-01
RMM:   5    -0.854779475593E+03   -0.37066E-03   -0.52907E-03  3156   0.758E-02    0.195E-01
RMM:   6    -0.854779301775E+03    0.17382E-03   -0.24207E-03  2879   0.578E-02    0.109E-01
RMM:   7    -0.854779286690E+03    0.15084E-04   -0.22999E-03  2853   0.509E-02    0.682E-02
RMM:   8    -0.854779285616E+03    0.10739E-05   -0.47394E-04  1758   0.301E-02
  37 F= -.87501715E+03 E0= -.87501715E+03  d E =-.148012E-01  mag=     2.0000
       N       E                     dE             d eps       ncg     rms          rms(c)
DAV:   1    -0.854777938473E+03    0.13482E-02   -0.62103E-01  2696   0.103E+00    0.186E-01
RMM:   2    -0.854779730113E+03   -0.17916E-02   -0.20183E-02  2750   0.281E-01    0.163E-01
RMM:   3    -0.854780093048E+03   -0.36293E-03   -0.43096E-03  3084   0.673E-02    0.144E-01
RMM:   4    -0.854780117509E+03   -0.24462E-04   -0.11270E-03  2357   0.451E-02    0.107E-01
RMM:   5    -0.854780218298E+03   -0.10079E-03   -0.73758E-04  2095   0.370E-02    0.543E-02
RMM:   6    -0.854780218126E+03    0.17199E-06   -0.22591E-04  1543   0.260E-02
  38 F= -.87501896E+03 E0= -.87501896E+03  d E =-.166136E-01  mag=     2.0000
       N       E                     dE             d eps       ncg     rms          rms(c)
DAV:   1    -0.854770920118E+03    0.92982E-02   -0.24513E+00  2344   0.205E+00    0.357E-01
RMM:   2    -0.854777789199E+03   -0.68691E-02   -0.77657E-02  2778   0.555E-01    0.316E-01
RMM:   3    -0.854779014378E+03   -0.12252E-02   -0.15351E-02  3328   0.130E-01    0.274E-01
RMM:   4    -0.854779017750E+03   -0.33716E-05   -0.45310E-03  3162   0.748E-02    0.205E-01
RMM:   5    -0.854779188272E+03   -0.17052E-03   -0.18523E-03  2740   0.458E-02    0.121E-01
RMM:   6    -0.854779159126E+03    0.29146E-04   -0.73462E-04  2019   0.359E-02
  39 F= -.87501966E+03 E0= -.87501966E+03  d E =-.173153E-01  mag=     2.0000
       N       E                     dE             d eps       ncg     rms          rms(c)
DAV:   1    -0.854749309035E+03    0.29879E-01   -0.77765E+00  2320   0.369E+00    0.570E-01
RMM:   2    -0.854776114468E+03   -0.26805E-01   -0.31034E-01  2909   0.107E+00    0.440E-01
RMM:   3    -0.854779990385E+03   -0.38759E-02   -0.54434E-02  3412   0.238E-01    0.350E-01
RMM:   4    -0.854779838556E+03    0.15183E-03   -0.13148E-02  3281   0.123E-01    0.270E-01
RMM:   5    -0.854780220067E+03   -0.38151E-03   -0.56949E-03  3319   0.684E-02    0.176E-01
RMM:   6    -0.854780294817E+03   -0.74750E-04   -0.25445E-03  2842   0.513E-02    0.111E-01
RMM:   7    -0.854780490491E+03   -0.19567E-03   -0.24594E-03  3004   0.525E-02    0.582E-02
RMM:   8    -0.854780529374E+03   -0.38883E-04   -0.75340E-04  1928   0.314E-02
  40 F= -.87502611E+03 E0= -.87502611E+03  d E =-.644923E-02  mag=     2.0000
       N       E                     dE             d eps       ncg     rms          rms(c)
DAV:   1    -0.854780233363E+03    0.25713E-03   -0.34564E-02  2976   0.246E-01    0.582E-02
RMM:   2    -0.854780371813E+03   -0.13845E-03   -0.16201E-03  2410   0.783E-02    0.481E-02
RMM:   3    -0.854780420800E+03   -0.48987E-04   -0.56655E-04  1770   0.271E-02
  41 F= -.87502633E+03 E0= -.87502633E+03  d E =-.666776E-02  mag=     2.0000
       N       E                     dE             d eps       ncg     rms          rms(c)
DAV:   1    -0.854778529495E+03    0.18423E-02   -0.15192E+00  2336   0.163E+00    0.323E-01
RMM:   2    -0.854782826419E+03   -0.42969E-02   -0.50841E-02  2735   0.473E-01    0.321E-01
RMM:   3    -0.854783872179E+03   -0.10458E-02   -0.11741E-02  3328   0.120E-01    0.293E-01
RMM:   4    -0.854783857143E+03    0.15037E-04   -0.33048E-03  3013   0.648E-02    0.245E-01
RMM:   5    -0.854784112330E+03   -0.25519E-03   -0.24184E-03  2958   0.528E-02    0.127E-01
RMM:   6    -0.854784007484E+03    0.10485E-03   -0.57482E-04  1871   0.356E-02    0.760E-02
RMM:   7    -0.854783924023E+03    0.83461E-04   -0.68535E-04  1972   0.371E-02
  42 F= -.87503152E+03 E0= -.87503152E+03  d E =-.518396E-02  mag=     2.0000
       N       E                     dE             d eps       ncg     rms          rms(c)
DAV:   1    -0.854783637161E+03    0.37032E-03   -0.15749E-01  2600   0.524E-01    0.120E-01
RMM:   2    -0.854784127793E+03   -0.49063E-03   -0.63268E-03  2715   0.159E-01    0.100E-01
RMM:   3    -0.854784255572E+03   -0.12778E-03   -0.14008E-03  2348   0.423E-02    0.843E-02
RMM:   4    -0.854784278606E+03   -0.23033E-04   -0.32708E-04  1595   0.342E-02
  43 F= -.87503241E+03 E0= -.87503241E+03  d E =-.607343E-02  mag=     2.0000
       N       E                     dE             d eps       ncg     rms          rms(c)
DAV:   1    -0.854781833677E+03    0.24219E-02   -0.61155E-01  2336   0.103E+00    0.231E-01
RMM:   2    -0.854783508524E+03   -0.16748E-02   -0.21567E-02  2757   0.303E-01    0.223E-01
RMM:   3    -0.854783994780E+03   -0.48626E-03   -0.54245E-03  3230   0.783E-02    0.201E-01
RMM:   4    -0.854784046970E+03   -0.52190E-04   -0.18239E-03  2777   0.500E-02    0.161E-01
RMM:   5    -0.854784172519E+03   -0.12555E-03   -0.94341E-04  2238   0.389E-02    0.786E-02
RMM:   6    -0.854784121797E+03    0.50722E-04   -0.26198E-04  1553   0.301E-02
  44 F= -.87503332E+03 E0= -.87503332E+03  d E =-.698671E-02  mag=     2.0000
       N       E                     dE             d eps       ncg     rms          rms(c)
DAV:   1    -0.854776878611E+03    0.72939E-02   -0.13692E+00  2304   0.157E+00    0.275E-01
RMM:   2    -0.854781965495E+03   -0.50869E-02   -0.68596E-02  2874   0.512E-01    0.233E-01
RMM:   3    -0.854782994461E+03   -0.10290E-02   -0.13658E-02  3314   0.125E-01    0.200E-01
RMM:   4    -0.854782951573E+03    0.42888E-04   -0.32117E-03  2898   0.678E-02    0.159E-01
RMM:   5    -0.854783115024E+03   -0.16345E-03   -0.16868E-03  2612   0.427E-02    0.976E-02
RMM:   6    -0.854783164332E+03   -0.49308E-04   -0.59097E-04  1852   0.304E-02
  45 F= -.87503553E+03 E0= -.87503553E+03  d E =-.221170E-02  mag=     2.0000
       N       E                     dE             d eps       ncg     rms          rms(c)
DAV:   1    -0.854781759380E+03    0.13556E-02   -0.12053E-01  2464   0.466E-01    0.103E-01
RMM:   2    -0.854782312501E+03   -0.55312E-03   -0.78730E-03  2947   0.158E-01    0.797E-02
RMM:   3    -0.854782405880E+03   -0.93379E-04   -0.14390E-03  2268   0.376E-02    0.678E-02
RMM:   4    -0.854782424692E+03   -0.18812E-04   -0.43639E-04  1707   0.316E-02
  46 F= -.87503573E+03 E0= -.87503573E+03  d E =-.241127E-02  mag=     2.0000
       N       E                     dE             d eps       ncg     rms          rms(c)
DAV:   1    -0.854779143652E+03    0.32622E-02   -0.88352E-01  2320   0.124E+00    0.160E-01
RMM:   2    -0.854781262606E+03   -0.21190E-02   -0.24666E-02  2685   0.323E-01    0.170E-01
RMM:   3    -0.854781717337E+03   -0.45473E-03   -0.53012E-03  3133   0.797E-02    0.160E-01
RMM:   4    -0.854781706323E+03    0.11014E-04   -0.17803E-03  2573   0.536E-02    0.141E-01
RMM:   5    -0.854781818220E+03   -0.11190E-03   -0.88503E-04  2201   0.369E-02    0.913E-02
RMM:   6    -0.854781818759E+03   -0.53926E-06   -0.29482E-04  1585   0.281E-02
  47 F= -.87503737E+03 E0= -.87503737E+03  d E =-.163977E-02  mag=     2.0000
       N       E                     dE             d eps       ncg     rms          rms(c)
DAV:   1    -0.854767257193E+03    0.14561E-01   -0.37816E+00  2304   0.256E+00    0.327E-01
RMM:   2    -0.854776869556E+03   -0.96124E-02   -0.10964E-01  2780   0.662E-01    0.338E-01
RMM:   3    -0.854778421854E+03   -0.15523E-02   -0.19866E-02  3306   0.154E-01    0.302E-01
RMM:   4    -0.854778342341E+03    0.79513E-04   -0.91898E-03  2996   0.110E-01    0.256E-01
RMM:   5    -0.854778701041E+03   -0.35870E-03   -0.30029E-03  2985   0.517E-02    0.181E-01
RMM:   6    -0.854778409779E+03    0.29126E-03   -0.11935E-03  2366   0.440E-02    0.132E-01
RMM:   7    -0.854778388107E+03    0.21672E-04   -0.15751E-03  2593   0.442E-02    0.551E-02
RMM:   8    -0.854778415934E+03   -0.27828E-04   -0.25738E-04  1579   0.278E-02
  48 F= -.87503861E+03 E0= -.87503861E+03  d E =-.287999E-02  mag=     2.0000
       N       E                     dE             d eps       ncg     rms          rms(c)
DAV:   1    -0.854771220382E+03    0.71677E-02   -0.12536E+00  2504   0.148E+00    0.234E-01
RMM:   2    -0.854775907789E+03   -0.46874E-02   -0.63038E-02  2921   0.478E-01    0.192E-01
RMM:   3    -0.854776702860E+03   -0.79507E-03   -0.11869E-02  3328   0.113E-01    0.154E-01
RMM:   4    -0.854776692117E+03    0.10743E-04   -0.31964E-03  2926   0.652E-02    0.130E-01
RMM:   5    -0.854776832298E+03   -0.14018E-03   -0.14382E-03  2393   0.376E-02    0.952E-02
RMM:   6    -0.854776911975E+03   -0.79677E-04   -0.64607E-04  1900   0.308E-02
  49 F= -.87504088E+03 E0= -.87504088E+03  d E =-.227435E-02  mag=     2.0000
       N       E                     dE             d eps       ncg     rms          rms(c)
DAV:   1    -0.854735622791E+03    0.41210E-01   -0.76049E+00  2320   0.365E+00    0.559E-01
RMM:   2    -0.854763961544E+03   -0.28339E-01   -0.35728E-01  2892   0.116E+00    0.471E-01
RMM:   3    -0.854768896904E+03   -0.49354E-02   -0.70485E-02  3425   0.279E-01    0.384E-01
RMM:   4    -0.854768693629E+03    0.20328E-03   -0.18887E-02  3269   0.148E-01    0.320E-01
RMM:   5    -0.854769408322E+03   -0.71469E-03   -0.85703E-03  3389   0.779E-02    0.231E-01
RMM:   6    -0.854769665171E+03   -0.25685E-03   -0.40996E-03  3004   0.605E-02    0.152E-01
RMM:   7    -0.854769927577E+03   -0.26241E-03   -0.28377E-03  2930   0.521E-02    0.653E-02
RMM:   8    -0.854770045910E+03   -0.11833E-03   -0.13716E-03  2138   0.372E-02    0.506E-02
RMM:   9    -0.854770094945E+03   -0.49035E-04   -0.92345E-04  1930   0.369E-02
  50 F= -.87504342E+03 E0= -.87504342E+03  d E =-.480767E-02  mag=     2.0000
       N       E                     dE             d eps       ncg     rms          rms(c)
DAV:   1    -0.854770335762E+03   -0.28985E-03   -0.61849E-01  2432   0.105E+00    0.174E-01
RMM:   2    -0.854772482365E+03   -0.21466E-02   -0.28935E-02  2902   0.322E-01    0.147E-01
RMM:   3    -0.854772682104E+03   -0.19974E-03   -0.35909E-03  2671   0.699E-02    0.116E-01
RMM:   4    -0.854772655991E+03    0.26112E-04   -0.88433E-04  2030   0.534E-02
  51 F= -.87504329E+03 E0= -.87504329E+03  d E =-.467630E-02  mag=     2.0000
       N       E                     dE             d eps       ncg     rms          rms(c)
DAV:   1    -0.854770797175E+03    0.18849E-02   -0.17043E-01  2456   0.548E-01    0.972E-02
RMM:   2    -0.854771465211E+03   -0.66804E-03   -0.70652E-03  2717   0.172E-01    0.379E-02
RMM:   3    -0.854771530943E+03   -0.65732E-04   -0.90231E-04  1999   0.405E-02
  52 F= -.87504355E+03 E0= -.87504355E+03  d E =-.493548E-02  mag=     2.0000
       N       E                     dE             d eps       ncg     rms          rms(c)
DAV:   1    -0.854762813964E+03    0.86512E-02   -0.17860E+00  2304   0.176E+00    0.232E-01
RMM:   2    -0.854768007891E+03   -0.51939E-02   -0.58230E-02  2747   0.487E-01    0.187E-01
RMM:   3    -0.854768862955E+03   -0.85506E-03   -0.11305E-02  3234   0.118E-01    0.158E-01
RMM:   4    -0.854768765790E+03    0.97164E-04   -0.28824E-03  2792   0.656E-02    0.126E-01
RMM:   5    -0.854768850223E+03   -0.84432E-04   -0.10593E-03  2249   0.350E-02    0.865E-02
RMM:   6    -0.854768883575E+03   -0.33352E-04   -0.46147E-04  1751   0.312E-02
  53 F= -.87504519E+03 E0= -.87504519E+03  d E =-.164381E-02  mag=     2.0000
