       N       E                     dE             d eps       ncg     rms          rms(c)
DAV:   1    -0.851356724018E+03   -0.85136E+03   -0.19316E-04  1896   0.803E-02    0.416E-02
RMM:   2    -0.851356744465E+03   -0.20447E-04   -0.32708E-04  1600   0.345E-02
   1 F= -.87156724E+03 E0= -.87156724E+03  d E =-.871567E+03  mag=    -0.0000
