 vasp.5.3.5 31Mar14 (build May 27 2014 14:39:49) gamma-only                     
  
 executed on           LinuxIFORT date 2020.09.26  09:59:20
 running on   48 total cores
 distrk:  each k-point on   48 cores,    1 groups
 distr:  one band on NCORES_PER_BAND=   6 cores,    8 groups


--------------------------------------------------------------------------------------------------------


 INCAR:
 POTCAR:    PAW_PBE Ce 23Dec2003                  
 POTCAR:    PAW_PBE O 08Apr2002                   
 POTCAR:    PAW_PBE Pt 04Feb2005                  
 POTCAR:    PAW_PBE Ce 23Dec2003                  
   VRHFIN =Ce : [core= Kr 4d10]                                                 
   LEXCH  = PE                                                                  
   EATOM  =  1063.0861 eV,   78.1346 Ry                                         
                                                                                
   TITEL  = PAW_PBE Ce 23Dec2003                                                
   LULTRA =        F    use ultrasoft PP ?                                      
   IUNSCR =        1    unscreen: 0-lin 1-nonlin 2-no                           
   RPACOR =    1.800    partial core radius                                     
   POMASS =  140.115; ZVAL   =   12.000    mass and valenz                      
   RCORE  =    2.700    outmost cutoff radius                                   
   RWIGS  =    2.500; RWIGS  =    1.323    wigner-seitz radius (au A)           
   ENMAX  =  273.042; ENMIN  =  204.781 eV                                      
   RCLOC  =    1.810    cutoff for local pot                                    
   LCOR   =        T    correct aug charges                                     
   LPAW   =        T    paw PP                                                  
   EAUG   =  580.196                                                            
   DEXC   =    0.000                                                            
   RMAX   =    2.749    core radius for proj-oper                               
   RAUG   =    1.300    factor for augmentation sphere                          
   RDEP   =    2.810    radius for radial grids                                 
   RDEPT  =    2.162    core radius for aug-charge                              
                                                                                
   Atomic configuration                                                         
   14 entries                                                                   
     n  l   j            E        occ.                                          
     1  0  0.50    -40258.9816   2.0000                                         
     2  0  0.50     -6445.4884   2.0000                                         
     2  1  1.50     -5771.7470   6.0000                                         
     3  0  0.50     -1387.9739   2.0000                                         
     3  1  1.50     -1173.8158   6.0000                                         
     3  2  2.50      -869.9108  10.0000                                         
     4  0  0.50      -280.8706   2.0000                                         
     4  1  1.50      -210.9815   6.0000                                         
     4  2  2.50      -110.4558  10.0000                                         
     5  0  0.50       -40.5819   2.0000                                         
     6  0  0.50        -3.7444   2.0000                                         
     5  1  1.50       -23.2188   6.0000                                         
     5  2  2.50        -3.0598   1.0000                                         
     4  3  2.50        -5.3970   1.0000                                         
   Description                                                                  
     l       E           TYP  RCUT    TYP  RCUT                                 
     0    -40.5819164     23  1.500                                             
     0     -3.7443793     23  2.300                                             
     1    -23.2188445     23  2.000                                             
     1     40.8174780     23  2.300                                             
     2     -3.0597556     23  2.500                                             
     2     13.6058260     23  2.500                                             
     3     -5.3970469     23  2.700                                             
     3     -5.8505052     23  2.700                                             
  local pseudopotential read in
  partial core-charges read in
  partial kinetic energy density read in
  atomic valenz-charges read in
  non local Contribution for L=           0  read in
    real space projection operators read in
  non local Contribution for L=           0  read in
    real space projection operators read in
  non local Contribution for L=           1  read in
    real space projection operators read in
  non local Contribution for L=           1  read in
    real space projection operators read in
  non local Contribution for L=           2  read in
    real space projection operators read in
  non local Contribution for L=           2  read in
    real space projection operators read in
  non local Contribution for L=           3  read in
    real space projection operators read in
  non local Contribution for L=           3  read in
    real space projection operators read in
    PAW grid and wavefunctions read in
 
   number of l-projection  operators is LMAX  =           8
   number of lm-projection operators is LMMAX =          32
 
 POTCAR:    PAW_PBE O 08Apr2002                   
   VRHFIN =O: s2p4                                                              
   LEXCH  = PE                                                                  
   EATOM  =   432.3788 eV,   31.7789 Ry                                         
                                                                                
   TITEL  = PAW_PBE O 08Apr2002                                                 
   LULTRA =        F    use ultrasoft PP ?                                      
   IUNSCR =        1    unscreen: 0-lin 1-nonlin 2-no                           
   RPACOR =    1.200    partial core radius                                     
   POMASS =   16.000; ZVAL   =    6.000    mass and valenz                      
   RCORE  =    1.520    outmost cutoff radius                                   
   RWIGS  =    1.550; RWIGS  =    0.820    wigner-seitz radius (au A)           
   ENMAX  =  400.000; ENMIN  =  300.000 eV                                      
   ICORE  =        2    local potential                                         
   LCOR   =        T    correct aug charges                                     
   LPAW   =        T    paw PP                                                  
   EAUG   =  605.392                                                            
   DEXC   =    0.000                                                            
   RMAX   =    1.553    core radius for proj-oper                               
   RAUG   =    1.300    factor for augmentation sphere                          
   RDEP   =    1.550    radius for radial grids                                 
   RDEPT  =    1.329    core radius for aug-charge                              
                                                                                
   Atomic configuration                                                         
    4 entries                                                                   
     n  l   j            E        occ.                                          
     1  0  0.50      -514.6923   2.0000                                         
     2  0  0.50       -23.9615   2.0000                                         
     2  1  0.50        -9.0305   4.0000                                         
     3  2  1.50        -9.5241   0.0000                                         
   Description                                                                  
     l       E           TYP  RCUT    TYP  RCUT                                 
     0    -23.9615318     23  1.200                                             
     0     -9.5240782     23  1.200                                             
     1     -9.0304911     23  1.520                                             
     1      8.1634956     23  1.520                                             
     2     -9.5240782      7  1.500                                             
  local pseudopotential read in
  partial core-charges read in
  partial kinetic energy density read in
  kinetic energy density of atom read in
  atomic valenz-charges read in
  non local Contribution for L=           0  read in
    real space projection operators read in
  non local Contribution for L=           0  read in
    real space projection operators read in
  non local Contribution for L=           1  read in
    real space projection operators read in
  non local Contribution for L=           1  read in
    real space projection operators read in
    PAW grid and wavefunctions read in
 
   number of l-projection  operators is LMAX  =           4
   number of lm-projection operators is LMMAX =           8
 
 POTCAR:    PAW_PBE Pt 04Feb2005                  
   VRHFIN =Pt: s1d9                                                             
   LEXCH  = PE                                                                  
   EATOM  =   729.1176 eV,   53.5886 Ry                                         
                                                                                
   TITEL  = PAW_PBE Pt 04Feb2005                                                
   LULTRA =        F    use ultrasoft PP ?                                      
   IUNSCR =        1    unscreen: 0-lin 1-nonlin 2-no                           
   RPACOR =    2.330    partial core radius                                     
   POMASS =  195.080; ZVAL   =   10.000    mass and valenz                      
   RCORE  =    2.600    outmost cutoff radius                                   
   RWIGS  =    2.750; RWIGS  =    1.455    wigner-seitz radius (au A)           
   ENMAX  =  230.283; ENMIN  =  172.712 eV                                      
   ICORE  =        3    local potential                                         
   LCOR   =        T    correct aug charges                                     
   LPAW   =        T    paw PP                                                  
   EAUG   =  358.966                                                            
   DEXC   =    0.000                                                            
   RMAX   =    2.658    core radius for proj-oper                               
   RAUG   =    1.300    factor for augmentation sphere                          
   RDEP   =    2.761    radius for radial grids                                 
   RDEPT  =    2.203    core radius for aug-charge                              
                                                                                
   Atomic configuration                                                         
   16 entries                                                                   
     n  l   j            E        occ.                                          
     1  0  0.50    -78401.1885   2.0000                                         
     2  0  0.50    -13770.7750   2.0000                                         
     2  1  1.50    -11931.0468   6.0000                                         
     3  0  0.50     -3234.7234   2.0000                                         
     3  1  1.50     -2699.2216   6.0000                                         
     3  2  2.50     -2119.5714  10.0000                                         
     4  0  0.50      -695.1528   2.0000                                         
     4  1  1.50      -519.6034   6.0000                                         
     4  2  2.50      -306.6786  10.0000                                         
     4  3  3.50       -70.1041  14.0000                                         
     5  0  0.50      -101.7747   2.0000                                         
     5  1  1.50       -55.9873   6.0000                                         
     5  2  2.50        -6.1423   9.0000                                         
     6  0  0.50        -5.6573   1.0000                                         
     6  1  1.50        -6.8029   0.0000                                         
     5  3  2.50        -1.3606   0.0000                                         
   Description                                                                  
     l       E           TYP  RCUT    TYP  RCUT                                 
     2     -6.1423404     23  2.500                                             
     2     -7.5029230     23  2.500                                             
     0     -5.6573207     23  2.500                                             
     0      0.7416693     23  2.500                                             
     1     -2.7211652     23  2.600                                             
     1     20.4087390     23  2.600                                             
     3     -1.3605826     23  2.500                                             
  local pseudopotential read in
  partial core-charges read in
  partial kinetic energy density read in
  atomic valenz-charges read in
  non local Contribution for L=           2  read in
    real space projection operators read in
  non local Contribution for L=           2  read in
    real space projection operators read in
  non local Contribution for L=           0  read in
    real space projection operators read in
  non local Contribution for L=           0  read in
    real space projection operators read in
  non local Contribution for L=           1  read in
    real space projection operators read in
  non local Contribution for L=           1  read in
    real space projection operators read in
    PAW grid and wavefunctions read in
 
   number of l-projection  operators is LMAX  =           6
   number of lm-projection operators is LMMAX =          18
 
 Optimization of the real space projectors (new method)

 maximal supplied QI-value         = 13.98
 optimisation between [QCUT,QGAM] = [ 10.21, 20.42] = [ 29.18,116.73] Ry 
 Optimized for a Real-space Cutoff    1.65 Angstroem

   l    n(q)    QCUT    max X(q) W(low)/X(q) W(high)/X(q)  e(spline) 
   0     10    10.208     8.553    0.18E-04    0.75E-05    0.12E-06
   0     10    10.208     8.106    0.26E-04    0.16E-04    0.24E-06
   1     10    10.208     4.160    0.93E-05    0.96E-06    0.75E-07
   1     10    10.208     3.597    0.23E-04    0.26E-04    0.15E-06
   2      9    10.208     8.183    0.11E-03    0.28E-03    0.51E-06
   2      9    10.208     6.077    0.74E-04    0.19E-03    0.37E-06
   3      9    10.208   116.013    0.19E-03    0.98E-05    0.18E-06
   3      9    10.208   108.937    0.19E-03    0.10E-04    0.18E-06
 Optimization of the real space projectors (new method)

 maximal supplied QI-value         = 24.76
 optimisation between [QCUT,QGAM] = [ 10.15, 20.30] = [ 28.85,115.39] Ry 
 Optimized for a Real-space Cutoff    1.51 Angstroem

   l    n(q)    QCUT    max X(q) W(low)/X(q) W(high)/X(q)  e(spline) 
   0      9    10.150    20.381    0.17E-03    0.18E-03    0.41E-06
   0      9    10.150    15.268    0.18E-03    0.20E-03    0.43E-06
   1      9    10.150     5.964    0.16E-03    0.20E-03    0.36E-06
   1      9    10.150     5.382    0.13E-03    0.16E-03    0.33E-06
 Optimization of the real space projectors (new method)

 maximal supplied QI-value         = 14.36
 optimisation between [QCUT,QGAM] = [ 10.20, 20.39] = [ 29.12,116.47] Ry 
 Optimized for a Real-space Cutoff    1.55 Angstroem

   l    n(q)    QCUT    max X(q) W(low)/X(q) W(high)/X(q)  e(spline) 
   2      9    10.197    66.195    0.14E-03    0.26E-03    0.16E-06
   2      9    10.197    64.643    0.14E-03    0.26E-03    0.16E-06
   0      9    10.197    95.520    0.52E-04    0.23E-04    0.61E-07
   0      9    10.197    63.403    0.50E-04    0.22E-04    0.58E-07
   1      9    10.197    19.961    0.18E-03    0.80E-04    0.90E-07
   1      9    10.197    13.289    0.15E-03    0.68E-04    0.78E-07
  PAW_PBE Ce 23Dec2003                  :
 energy of atom  1       EATOM=-1063.0861
 kinetic energy error for atom=    0.0451 (will be added to EATOM!!)
  PAW_PBE O 08Apr2002                   :
 energy of atom  2       EATOM= -432.3788
 kinetic energy error for atom=    0.1156 (will be added to EATOM!!)
  PAW_PBE Pt 04Feb2005                  :
 energy of atom  3       EATOM= -729.1176
 kinetic energy error for atom=    0.0056 (will be added to EATOM!!)
 
 
 POSCAR: CeO2-110-l3-p23:                        
  positions in direct lattice
  velocities in cartesian coordinates
 exchange correlation table for  LEXCH =        8
   RHO(1)=    0.500       N(1)  =     2000
   RHO(2)=  100.500       N(2)  =     4000

 VTST: version 3.1, (03/28/14)

 CHAIN: initializing optimizer
 
 OPT: Using VASP Conjugate-Gradient optimizer
 CHAIN: Read ICHAIN            0
 
 POSCAR: CeO2-110-l3-p23:                        
  positions in direct lattice
  velocities in cartesian coordinates
 


--------------------------------------------------------------------------------------------------------


 ion  position               nearest neighbor table
   1  0.771  0.167  0.000-  36 2.38  40 2.38  39 2.38  44 2.38  52 2.38  54 2.38
   2  0.771  0.500  0.000-  36 2.38  38 2.38  40 2.38  46 2.38  58 2.38  59 2.38
   3  0.271  0.167  0.000-  41 2.38  45 2.38  43 2.38  37 2.38  50 2.38  51 2.38
   4  0.771  0.833  0.000-  38 2.38  46 2.38  44 2.38  39 2.38  49 2.38  53 2.38
   5  0.271  0.500  0.000-  41 2.38  42 2.38  45 2.38  47 2.38  56 2.38  57 2.38
   6  0.271  0.833  0.000-  42 2.38  47 2.38  43 2.38  37 2.38  48 2.38  55 2.38
   7  0.521  0.000  0.079-  60 2.36  49 2.38  50 2.38  54 2.38  48 2.38  44 2.38  43 2.38  66 2.40

   8  0.521  0.667  0.079-  61 2.37  62 2.38  48 2.38  49 2.38  56 2.38  59 2.38  38 2.38  42 2.38

   9  0.021  0.000  0.079-  64 2.37  65 2.37  53 2.38  55 2.38  51 2.38  52 2.38  37 2.38  39 2.38

  10  0.521  0.333  0.079-  68 2.38  54 2.38  50 2.38  59 2.38  56 2.38  45 2.38  36 2.38  70 2.39

  11  0.021  0.333  0.079-  71 2.37  69 2.37  51 2.38  52 2.38  57 2.38  58 2.38  40 2.38  41 2.38

  12  0.021  0.667  0.079-  67 2.37  63 2.37  53 2.38  55 2.38  57 2.38  58 2.38  46 2.38  47 2.38

  13  0.770  0.167  0.157-  72 2.36  60 2.36  79 2.36  69 2.37  54 2.38  70 2.38  65 2.39  52 2.39

  14  0.770  0.834  0.157-  73 2.31  49 2.37  83 2.38  63 2.38  65 2.38  60 2.38  53 2.38  62 2.40

  15  0.272  0.167  0.158-  82 2.35  78 2.37  68 2.37  71 2.37  64 2.38  50 2.39  66 2.39  51 2.39

  16  0.770  0.500  0.158-  75 2.34  62 2.36  70 2.36  69 2.37  63 2.38  59 2.39  77 2.40  58 2.41

  17  0.271  0.499  0.156-  80 2.35  56 2.36  57 2.36  68 2.37  71 2.38  61 2.38  81 2.38  67 2.39

  18  0.271  0.833  0.158-  76 2.35  61 2.37  66 2.37  67 2.38  64 2.38  48 2.39  55 2.39  74 2.40

  19  0.018  0.667  0.233-  63 2.32  67 2.34  83 2.36  75 2.36  86 2.37  81 2.39  91 2.40  76 2.40

  20  0.521  0.666  0.234-  74 2.32  89 2.34  62 2.34  77 2.36  61 2.37  80 2.39  73 2.40  92 2.53

  21  0.018  0.333  0.233-  69 2.33  79 2.34  71 2.36  94 2.37  75 2.38  81 2.38  93 2.39  82 2.40

  22  0.023  0.001  0.233-  64 2.33  65 2.34  82 2.35  76 2.36  85 2.38  83 2.39  79 2.39  95 2.41

  23  0.522  0.001  0.234-  66 2.34  90 2.35  73 2.35  88 2.35  60 2.36  72 2.38  78 2.41  74 2.46

  24  0.522  0.334  0.236-  78 2.36  77 2.36  70 2.36  72 2.37  68 2.39  80 2.39  84 2.43  87 2.50
                           107 3.17
  25  0.766  0.503  0.321- 105 2.29  84 2.32 104 2.36  91 2.39  93 2.43  89 2.43  77 2.45  75 2.55

  26  0.773  0.167  0.317- 102 2.33 103 2.34  93 2.37  85 2.38  84 2.40  88 2.41  79 2.43  72 2.44
                           107 3.10
  27  0.264  0.498  0.311- 106 2.26  81 2.30  87 2.30  92 2.33  94 2.35  86 2.37  80 2.37
  28  0.273  0.831  0.317-  97 2.30  90 2.36  98 2.36  86 2.38  95 2.38  74 2.38  76 2.45  92 2.48

  29  0.273  0.165  0.317- 100 2.32  99 2.35  95 2.37  90 2.40  94 2.41  78 2.41  82 2.46  87 2.46
                           107 3.07
  30  0.776  0.836  0.315-  89 2.33  88 2.33 101 2.35  96 2.36  85 2.36  83 2.38  91 2.38  73 2.49

  31  0.024  0.001  0.385-  95 2.23  85 2.24 101 2.31 100 2.33 102 2.34  97 2.40
  32  0.524  0.996  0.385-  98 2.28 103 2.28  88 2.29  90 2.29  99 2.30  96 2.30 107 3.03
  33  0.025  0.668  0.384-  86 2.24  91 2.24  97 2.31 104 2.32 101 2.33 106 2.41
  34  0.536  0.683  0.387- 105 2.06  96 2.22  98 2.26  89 2.26  92 2.29
  35  0.023  0.332  0.384-  94 2.23  93 2.24 102 2.31 104 2.33 100 2.33 106 2.45
  36  0.646  0.333  0.000-   1 2.38   2 2.38  10 2.38
  37  0.146  0.000  0.000-   3 2.38   6 2.38   9 2.38
  38  0.646  0.667  0.000-   4 2.38   2 2.38   8 2.38
  39  0.896  0.000  0.000-   1 2.38   4 2.38   9 2.38
  40  0.896  0.333  0.000-   1 2.38   2 2.38  11 2.38
  41  0.146  0.333  0.000-   3 2.38   5 2.38  11 2.38
  42  0.396  0.667  0.000-   6 2.38   5 2.38   8 2.38
  43  0.396  0.000  0.000-   3 2.38   6 2.38   7 2.38
  44  0.646  0.000  0.000-   1 2.38   4 2.38   7 2.38
  45  0.396  0.333  0.000-   3 2.38   5 2.38  10 2.38
  46  0.896  0.667  0.000-   4 2.38   2 2.38  12 2.38
  47  0.146  0.667  0.000-   6 2.38   5 2.38  12 2.38
  48  0.396  0.833  0.079-   8 2.38   7 2.38   6 2.38  18 2.39
  49  0.646  0.833  0.079-  14 2.37   8 2.38   7 2.38   4 2.38
  50  0.396  0.167  0.079-  10 2.38   7 2.38   3 2.38  15 2.39
  51  0.146  0.167  0.079-  11 2.38   9 2.38   3 2.38  15 2.39
  52  0.896  0.167  0.079-  11 2.38   9 2.38   1 2.38  13 2.39
  53  0.896  0.833  0.079-  12 2.38   9 2.38   4 2.38  14 2.38
  54  0.646  0.167  0.079-  10 2.38   7 2.38   1 2.38  13 2.38
  55  0.146  0.833  0.079-  12 2.38   9 2.38   6 2.38  18 2.39
  56  0.396  0.500  0.079-  17 2.36  10 2.38   8 2.38   5 2.38
  57  0.146  0.500  0.079-  17 2.36  12 2.38  11 2.38   5 2.38
  58  0.896  0.500  0.079-  11 2.38  12 2.38   2 2.38  16 2.41
  59  0.646  0.500  0.079-   8 2.38  10 2.38   2 2.38  16 2.39
  60  0.647  0.002  0.156-  13 2.36  23 2.36   7 2.36  14 2.38
  61  0.396  0.666  0.157-  20 2.37  18 2.37   8 2.37  17 2.38
  62  0.645  0.665  0.157-  20 2.34  16 2.36   8 2.38  14 2.40
  63  0.895  0.667  0.157-  19 2.32  12 2.37  14 2.38  16 2.38
  64  0.147  1.000  0.156-  22 2.33   9 2.37  18 2.38  15 2.38
  65  0.896  0.000  0.157-  22 2.34   9 2.37  14 2.38  13 2.39
  66  0.396  0.999  0.158-  23 2.34  18 2.37  15 2.39   7 2.40
  67  0.146  0.666  0.157-  19 2.34  12 2.37  18 2.38  17 2.39
  68  0.396  0.333  0.157-  15 2.37  17 2.37  10 2.38  24 2.39
  69  0.895  0.333  0.157-  21 2.33  13 2.37  16 2.37  11 2.37
  70  0.645  0.335  0.158-  24 2.36  16 2.36  13 2.38  10 2.39
  71  0.146  0.333  0.157-  21 2.36  11 2.37  15 2.37  17 2.38
  72  0.647  0.168  0.235-  13 2.36  24 2.37  23 2.38  26 2.44
  73  0.646  0.836  0.233-  14 2.31  23 2.35  20 2.40  30 2.49
  74  0.396  0.826  0.237-  20 2.32  28 2.38  18 2.40  23 2.46
  75  0.895  0.501  0.235-  16 2.34  19 2.36  21 2.38  25 2.55
  76  0.146  0.834  0.235-  18 2.35  22 2.36  19 2.40  28 2.45
  77  0.644  0.500  0.237-  20 2.36  24 2.36  16 2.40  25 2.45
  78  0.396  0.170  0.236-  24 2.36  15 2.37  23 2.41  29 2.41
  79  0.896  0.167  0.235-  21 2.34  13 2.36  22 2.39  26 2.43
  80  0.394  0.500  0.235-  17 2.35  27 2.37  20 2.39  24 2.39
  81  0.144  0.499  0.235-  27 2.30  17 2.38  21 2.38  19 2.39
  82  0.146  0.165  0.235-  22 2.35  15 2.35  21 2.40  29 2.46
  83  0.897  0.834  0.235-  19 2.36  30 2.38  14 2.38  22 2.39
  84  0.649  0.337  0.317- 107 2.01  25 2.32  26 2.40  24 2.43
  85  0.900  0.002  0.312-  31 2.24  30 2.36  22 2.38  26 2.38
  86  0.144  0.667  0.311-  33 2.24  27 2.37  19 2.37  28 2.38
  87  0.393  0.343  0.319- 107 2.02  27 2.30  29 2.46  24 2.50
  88  0.650  0.997  0.311-  32 2.29  30 2.33  23 2.35  26 2.41
  89  0.647  0.678  0.310-  34 2.26  30 2.33  20 2.34  25 2.43
  90  0.397  0.996  0.311-  32 2.29  23 2.35  28 2.36  29 2.40
  91  0.896  0.666  0.313-  33 2.24  30 2.38  25 2.39  19 2.40
  92  0.396  0.653  0.320-  34 2.29  27 2.33  28 2.48  20 2.53
  93  0.896  0.335  0.314-  35 2.24  26 2.37  21 2.39  25 2.43
  94  0.143  0.331  0.311-  35 2.23  27 2.35  21 2.37  29 2.41
  95  0.149  0.999  0.313-  31 2.23  29 2.37  28 2.38  22 2.41
  96  0.651  0.839  0.392-  34 2.22  32 2.30  30 2.36
  97  0.145  0.830  0.390-  28 2.30  33 2.31  31 2.40
  98  0.407  0.834  0.391-  34 2.26  32 2.28  28 2.36
  99  0.396  0.150  0.394- 107 2.00  32 2.30  29 2.35
 100  0.141  0.167  0.390-  29 2.32  31 2.33  35 2.33
 101  0.909  0.835  0.390-  31 2.31  33 2.33  30 2.35
 102  0.906  0.167  0.390-  35 2.31  26 2.33  31 2.34
 103  0.648  0.152  0.393- 107 2.00  32 2.28  26 2.34
 104  0.910  0.501  0.392-  33 2.32  35 2.33  25 2.36
 105  0.639  0.535  0.393-  34 2.06  25 2.29
 106  0.154  0.501  0.389-  27 2.26  33 2.41  35 2.45
 107  0.521  0.249  0.358- 103 2.00  99 2.00  84 2.01  87 2.02  32 3.03  29 3.07  26 3.10  24 3.17

 

IMPORTANT INFORMATION: All symmetrisations will be switched off!
NOSYMM: (Re-)initialisation of all symmetry stuff for point group C_1.

 
 
 KPOINTS: CeO2-111-3x3-9layers         ! Comment  

Automatic generation of k-mesh.
Space group operators:
 irot       det(A)        alpha          n_x          n_y          n_z        tau_x        tau_y        tau_z
    1     1.000000     0.000000     1.000000     0.000000     0.000000     0.000000     0.000000     0.000000
 
 Subroutine IBZKPT returns following result:
 ===========================================
 
 Found      1 irreducible k-points:
 
 Following reciprocal coordinates:
            Coordinates               Weight
  0.000000  0.000000  0.000000      1.000000
 
 Following cartesian coordinates:
            Coordinates               Weight
  0.000000  0.000000  0.000000      1.000000
 


--------------------------------------------------------------------------------------------------------




 Dimension of arrays:
   k-points           NKPTS =      1   k-points in BZ     NKDIM =      1   number of bands    NBANDS=    568
   number of dos      NEDOS =    301   number of ions     NIONS =    107
   non local maximal  LDIM  =      8   non local SUM 2l+1 LMDIM =     32
   total plane-waves  NPLWV = 933120
   max r-space proj   IRMAX =   5592   max aug-charges    IRDMAX= 143303
   dimension x,y,z NGX =    72 NGY =   80 NGZ =  162
   dimension x,y,z NGXF=   144 NGYF=  160 NGZF=  324
   support grid    NGXF=   288 NGYF=  320 NGZF=  648
   ions per type =              35  71   1
 NGX,Y,Z   is equivalent  to a cutoff of  10.90, 11.42, 10.90 a.u.
 NGXF,Y,Z  is equivalent  to a cutoff of  21.80, 22.84, 21.80 a.u.


 I would recommend the setting:
   dimension x,y,z NGX =    72 NGY =   76 NGZ =  161
 SYSTEM =  unknown system                          
 POSCAR =  CeO2-110-l3-p23:                        

 Startparameter for this run:
   NWRITE =      2    write-flag & timer
   PREC   = accura    normal or accurate (medium, high low for compatibility)
   ISTART =      1    job   : 0-new  1-cont  2-samecut
   ICHARG =      0    charge: 1-file 2-atom 10-const
   ISPIN  =      2    spin polarized calculation?
   LNONCOLLINEAR =      F non collinear calculations
   LSORBIT =      F    spin-orbit coupling
   INIWAV =      1    electr: 0-lowe 1-rand  2-diag
   LASPH  =      T    aspherical Exc in radial PAW
   METAGGA=      F    non-selfconsistent MetaGGA calc.

 Electronic Relaxation 1
   ENCUT  =  400.0 eV  29.40 Ry    5.42 a.u.  17.91 18.99 40.29*2*pi/ulx,y,z
   ENINI  =  400.0     initial cutoff
   ENAUG  =  605.4 eV  augmentation charge cutoff
   NELM   =    100;   NELMIN=  2; NELMDL=  0     # of ELM steps 
   EDIFF  = 0.1E-03   stopping-criterion for ELM
   LREAL  =      T    real-space projection
   NLSPLINE    = F    spline interpolate recip. space projectors
   LCOMPAT=      F    compatible to vasp.4.4
   GGA_COMPAT  = T    GGA compatible to vasp.4.4-vasp.4.6
   LMAXPAW     = -100 max onsite density
   LMAXMIX     =    6 max onsite mixed and CHGCAR
   VOSKOWN=      0    Vosko Wilk Nusair interpolation
   ROPT   =   -0.00025  -0.00025  -0.00025
 Ionic relaxation
   EDIFFG = -.5E-01   stopping-criterion for IOM
   NSW    =    100    number of steps for IOM
   NBLOCK =      1;   KBLOCK =    100    inner block; outer block 
   IBRION =      2    ionic relax: 0-MD 1-quasi-New 2-CG
   NFREE  =      1    steps in history (QN), initial steepest desc. (CG)
   ISIF   =      2    stress and relaxation
   IWAVPR =     11    prediction:  0-non 1-charg 2-wave 3-comb
   ISYM   =      0    0-nonsym 1-usesym 2-fastsym
   LCORR  =      T    Harris-Foulkes like correction to forces

   POTIM  = 0.1000    time-step for ionic-motion
   TEIN   =    0.0    initial temperature
   TEBEG  =    0.0;   TEEND  =   0.0 temperature during run
   SMASS  =  -3.00    Nose mass-parameter (am)
   estimated Nose-frequenzy (Omega)   =  0.10E-29 period in steps =****** mass=  -0.276E-26a.u.
   SCALEE = 1.0000    scale energy and forces
   NPACO  =    256;   APACO  = 16.0  distance and # of slots for P.C.
   PSTRESS=    0.0 pullay stress

  Mass of Ions in am
   POMASS = 140.12 16.00195.08
  Ionic Valenz
   ZVAL   =  12.00  6.00 10.00
  Atomic Wigner-Seitz radii
   RWIGS  =  -1.00 -1.00 -1.00
  virtual crystal weights 
   VCA    =   1.00  1.00  1.00
   NELECT =     856.0000    total number of electrons
   NUPDOWN=      -1.0000    fix difference up-down

 DOS related values:
   EMIN   =  10.00;   EMAX   =-10.00  energy-range for DOS
   EFERMI =   0.00
   ISMEAR =     0;   SIGMA  =   0.05  broadening in eV -4-tet -1-fermi 0-gaus

 Electronic relaxation 2 (details)
   IALGO  =     68    algorithm
   LDIAG  =      T    sub-space diagonalisation (order eigenvalues)
   LSUBROT=      F    optimize rotation matrix (better conditioning)
   TURBO    =      0    0=normal 1=particle mesh
   IRESTART =      0    0=no restart 2=restart with 2 vectors
   NREBOOT  =      0    no. of reboots
   NMIN     =      0    reboot dimension
   EREF     =   0.00    reference energy to select bands
   IMIX   =      4    mixing-type and parameters
     AMIX     =   0.20;   BMIX     =  0.00
     AMIX_MAG =   0.80;   BMIX_MAG =  0.00
     AMIN     =   0.10
     WC   =   100.;   INIMIX=   1;  MIXPRE=   1;  MAXMIX= -45

 Intra band minimization:
   WEIMIN = 0.0010     energy-eigenvalue tresh-hold
   EBREAK =  0.44E-07  absolut break condition
   DEPER  =   0.30     relativ break condition  

   TIME   =   0.40     timestep for ELM

  volume/ion in A,a.u.               =      29.52       199.24
  Fermi-wavevector in a.u.,A,eV,Ry     =   1.059361  2.001902 15.269075  1.122245
  Thomas-Fermi vector in A             =   2.194703
 
 Write flags
   LWAVE  =      T    write WAVECAR
   LCHARG =      T    write CHGCAR
   LVTOT  =      F    write LOCPOT, total local potential
   LVHAR  =      F    write LOCPOT, Hartree potential only
   LELF   =      F    write electronic localiz. function (ELF)
   LORBIT =     11    0 simple, 1 ext, 2 COOP (PROOUT)


 Dipole corrections
   LMONO  =      F    monopole corrections only (constant potential shift)
   LDIPOL =      T    correct potential (dipole corrections)
   IDIPOL =      3    1-x, 2-y, 3-z, 4-all directions 
   EPSILON=  1.0000000 bulk dielectric constant

 LDA+U is selected, type is set to LDAUTYPE =  2
   angular momentum for each species LDAUL =     3   -1   -1
   U (eV)           for each species LDAUU =   4.5  0.0  0.0
   J (eV)           for each species LDAUJ =   0.0  0.0  0.0
 Exchange correlation treatment:
   GGA     =    --    GGA type
   LEXCH   =     8    internal setting for exchange type
   VOSKOWN=      0    Vosko Wilk Nusair interpolation
   LHFCALC =     F    Hartree Fock is set to
   LHFONE  =     F    Hartree Fock one center treatment
   AEXX    =    0.0000 exact exchange contribution

 Linear response parameters
   LEPSILON=     F    determine dielectric tensor
   LRPA    =     F    only Hartree local field effects (RPA)
   LNABLA  =     F    use nabla operator in PAW spheres
   LVEL    =     F    velocity operator in full k-point grid
   LINTERFAST=   F  fast interpolation
   KINTER  =     0    interpolate to denser k-point grid
   CSHIFT  =0.1000    complex shift for real part using Kramers Kronig
   OMEGAMAX=  -1.0    maximum frequency
   DEG_THRESHOLD= 0.2000000E-02 threshold for treating states as degnerate
   RTIME   =    0.100 relaxation time in fs

 Orbital magnetization related:
   ORBITALMAG=     F  switch on orbital magnetization
   LCHIMAG   =     F  perturbation theory with respect to B field
   DQ        =  0.001000  dq finite difference perturbation B field



--------------------------------------------------------------------------------------------------------


 conjugate gradient relaxation of ions
   using selective dynamics as specified on POSCAR
 charge density and potential will be updated during run
 spin polarized calculation
 RMM-DIIS sequential band-by-band and
  variant of blocked Davidson during initial phase
 perform sub-space diagonalisation
    before iterative eigenvector-optimisation
 modified Broyden-mixing scheme, WC =      100.0
 initial mixing is a Kerker type mixing with AMIX =  0.2000 and BMIX =      0.0010
 Hartree-type preconditioning will be used
 using additional bands          140
 real space projection scheme for non local part
 use partial core corrections
 calculate Harris-corrections to forces 
   (improved forces if not selfconsistent)
 use gradient corrections 
 use of overlap-Matrix (Vanderbilt PP)
 Gauss-broadening in eV      SIGMA  =   0.05


--------------------------------------------------------------------------------------------------------


  energy-cutoff  :      400.00
  volume of cell :     3159.12
      direct lattice vectors                 reciprocal lattice vectors
    10.980000000  0.000000000  0.000000000     0.091074681  0.000000000  0.000000000
     0.000000000 11.646048686  0.000000000     0.000000000  0.085866033  0.000000000
     0.000000000  0.000000000 24.705040572     0.000000000  0.000000000  0.040477570

  length of vectors
    10.980000000 11.646048686 24.705040572     0.091074681  0.085866033  0.040477570


 
 old parameters found on file WAVECAR:
  energy-cutoff  :      400.00
  volume of cell :     3159.12
      direct lattice vectors                 reciprocal lattice vectors
    10.980000000  0.000000000  0.000000000     0.091074681  0.000000000  0.000000000
     0.000000000 11.646048686  0.000000000     0.000000000  0.085866033  0.000000000
     0.000000000  0.000000000 24.705040572     0.000000000  0.000000000  0.040477570

  length of vectors

 
 k-points in units of 2pi/SCALE and weight: CeO2-111-3x3-9layers         ! Comment  
   0.00000000  0.00000000  0.00000000       1.000
 
 k-points in reciprocal lattice and weights: CeO2-111-3x3-9layers         ! Comment  
   0.00000000  0.00000000  0.00000000       1.000
 
 position of ions in fractional coordinates (direct lattice) 
   0.77120274  0.16666677  0.00000000
   0.77120274  0.50000010  0.00000000
   0.27120274  0.16666677  0.00000000
   0.77120274  0.83333343  0.00000000
   0.27120274  0.50000010  0.00000000
   0.27120274  0.83333343  0.00000000
   0.52120274  0.00000010  0.07856729
   0.52120274  0.66666677  0.07856729
   0.02120274  0.00000010  0.07856729
   0.52120274  0.33333343  0.07856729
   0.02120274  0.33333343  0.07856729
   0.02120274  0.66666677  0.07856729
   0.77046814  0.16729116  0.15749884
   0.77023844  0.83425326  0.15709877
   0.27157202  0.16728687  0.15781897
   0.77018527  0.49997401  0.15819661
   0.27143669  0.49925804  0.15641567
   0.27123196  0.83254089  0.15771247
   0.01837808  0.66673910  0.23284362
   0.52143832  0.66590778  0.23425463
   0.01776248  0.33276418  0.23332762
   0.02335399  0.00060298  0.23313943
   0.52240424  0.00089806  0.23416661
   0.52172903  0.33379123  0.23590981
   0.76584672  0.50313280  0.32083836
   0.77309710  0.16731689  0.31673971
   0.26364472  0.49780755  0.31109249
   0.27274799  0.83085251  0.31658172
   0.27258969  0.16499427  0.31695969
   0.77639769  0.83641114  0.31494463
   0.02405859  0.00052138  0.38470651
   0.52436888  0.99567399  0.38490312
   0.02461561  0.66759960  0.38407080
   0.53554776  0.68279590  0.38721477
   0.02250532  0.33196683  0.38438235
   0.64620274  0.33333343  0.00000000
   0.14620274  0.00000010  0.00000000
   0.64620274  0.66666677  0.00000000
   0.89620274  0.00000010  0.00000000
   0.89620274  0.33333343  0.00000000
   0.14620274  0.33333343  0.00000000
   0.39620274  0.66666677  0.00000000
   0.39620274  0.00000010  0.00000000
   0.64620274  0.00000010  0.00000000
   0.39620274  0.33333343  0.00000000
   0.89620274  0.66666677  0.00000000
   0.14620274  0.66666677  0.00000000
   0.39620274  0.83333343  0.07856729
   0.64620274  0.83333343  0.07856729
   0.39620274  0.16666677  0.07856729
   0.14620274  0.16666677  0.07856729
   0.89620274  0.16666677  0.07856729
   0.89620274  0.83333343  0.07856729
   0.64620274  0.16666677  0.07856729
   0.14620274  0.83333343  0.07856729
   0.39620274  0.50000010  0.07856729
   0.14620274  0.50000010  0.07856729
   0.89620274  0.50000010  0.07856729
   0.64620274  0.50000010  0.07856729
   0.64650514  0.00209489  0.15625981
   0.39559270  0.66643255  0.15651617
   0.64539643  0.66513004  0.15734212
   0.89480038  0.66734998  0.15654987
   0.14733126  0.99989937  0.15645649
   0.89644131  0.00027942  0.15694843
   0.39625299  0.99893496  0.15806530
   0.14573131  0.66628588  0.15685034
   0.39616469  0.33329731  0.15710695
   0.89498323  0.33349539  0.15661240
   0.64548142  0.33454713  0.15776100
   0.14582915  0.33311227  0.15677902
   0.64669511  0.16838635  0.23536913
   0.64565948  0.83554657  0.23260553
   0.39600862  0.82641950  0.23723479
   0.89495525  0.50073818  0.23501936
   0.14636312  0.83406090  0.23481009
   0.64445618  0.50013375  0.23746751
   0.39567741  0.16968474  0.23613895
   0.89637298  0.16743039  0.23515993
   0.39374890  0.49987453  0.23453257
   0.14440211  0.49903862  0.23452108
   0.14604000  0.16542186  0.23501557
   0.89692870  0.83367874  0.23509118
   0.64899209  0.33744912  0.31658366
   0.90038205  0.00188197  0.31249487
   0.14428496  0.66685664  0.31065812
   0.39260195  0.34286623  0.31898323
   0.64969007  0.99715030  0.31085911
   0.64733062  0.67771713  0.31031537
   0.39723223  0.99582347  0.31125573
   0.89623209  0.66627529  0.31345574
   0.39564900  0.65275392  0.32006105
   0.89561428  0.33523730  0.31352575
   0.14278965  0.33114553  0.31147007
   0.14880336  0.99854057  0.31330513
   0.65064569  0.83898785  0.39224940
   0.14523748  0.82965893  0.39037705
   0.40724284  0.83445917  0.39117761
   0.39631151  0.15030081  0.39413904
   0.14092029  0.16667961  0.39037725
   0.90904214  0.83494116  0.38953053
   0.90607623  0.16695440  0.39031274
   0.64826242  0.15210673  0.39335241
   0.91009804  0.50065847  0.39153038
   0.63867830  0.53526371  0.39267278
   0.15446607  0.50110307  0.38874315
   0.52112512  0.24913233  0.35767972
 
 position of ions in cartesian coordinates  (Angst):
   8.46780604  1.94100927  0.00000000
   8.46780604  5.82302550  0.00000000
   2.97780604  1.94100927  0.00000000
   8.46780604  9.70504173  0.00000000
   2.97780604  5.82302550  0.00000000
   2.97780604  9.70504173  0.00000000
   5.72280604  0.00000116  1.94100811
   5.72280604  7.76403361  1.94100811
   0.23280604  0.00000116  1.94100811
   5.72280604  3.88201739  1.94100811
   0.23280604  3.88201739  1.94100811
   0.23280604  7.76403361  1.94100811
   8.45974018  1.94828102  3.89101529
   8.45721807  9.71575407  3.88113157
   2.98186079  1.94823106  3.89892401
   8.45663431  5.82272164  3.90825373
   2.98037481  5.81438340  3.86425558
   2.97812687  9.69581173  3.89629291
   0.20179128  7.76487597  5.75241102
   5.72539276  7.75519440  5.78727008
   0.19503205  3.87538778  5.76436829
   0.25642685  0.00702233  5.75971897
   5.73599859  0.01045879  5.78509567
   5.72858472  3.88734895  5.82816153
   8.40899700  5.85950904  7.92632482
   8.48860612  1.94858060  7.82506744
   2.89481905  5.79749100  7.68555258
   2.99477298  9.67614881  7.82116422
   2.99303478  1.92153125  7.83050209
   8.52484664  9.74088486  7.78071976
   0.26416330  0.00607198  9.50418990
   5.75757028 11.59566772  9.50904730
   0.27027942  7.77489739  9.48848464
   5.88031445  7.95187434  9.56615659
   0.24710841  3.86610185  9.49618161
   7.09530604  3.88201739  0.00000000
   1.60530604  0.00000116  0.00000000
   7.09530604  7.76403361  0.00000000
   9.84030604  0.00000116  0.00000000
   9.84030604  3.88201739  0.00000000
   1.60530604  3.88201739  0.00000000
   4.35030604  7.76403361  0.00000000
   4.35030604  0.00000116  0.00000000
   7.09530604  0.00000116  0.00000000
   4.35030604  3.88201739  0.00000000
   9.84030604  7.76403361  0.00000000
   1.60530604  7.76403361  0.00000000
   4.35030604  9.70504173  1.94100811
   7.09530604  9.70504173  1.94100811
   4.35030604  1.94100927  1.94100811
   1.60530604  1.94100927  1.94100811
   9.84030604  1.94100927  1.94100811
   9.84030604  9.70504173  1.94100811
   7.09530604  1.94100927  1.94100811
   1.60530604  9.70504173  1.94100811
   4.35030604  5.82302550  1.94100811
   1.60530604  5.82302550  1.94100811
   9.84030604  5.82302550  1.94100811
   7.09530604  5.82302550  1.94100811
   7.09862643  0.02439717  3.86040498
   4.34360788  7.76130588  3.86673843
   7.08645282  7.74613685  3.88714343
   9.82490821  7.77199038  3.86757099
   1.61769720 11.64487679  3.86526392
   9.84292562  0.00325420  3.87741740
   4.35085780 11.63364513  3.90500973
   1.60012976  7.75959776  3.87499396
   4.34988833  3.88159671  3.88133351
   9.82691589  3.88390353  3.86911568
   7.08738599  3.89615219  3.89749187
   1.60120401  3.87944175  3.87323202
   7.10071228  1.96103565  5.81480382
   7.08934112  9.73081606  5.74652917
   4.34817467  9.62452179  5.86089499
   9.82660860  5.83162120  5.80616270
   1.60706706  9.71351389  5.80099289
   7.07612883  5.82458196  5.86664444
   4.34453798  1.97615670  5.83382244
   9.84217535  1.94990246  5.80963566
   4.32336291  5.82156312  5.79413667
   1.58553521  5.81182809  5.79385288
   1.60351915  1.92651098  5.80606930
   9.84827715  9.70906319  5.80793710
   7.12593314  3.92994892  7.82121212
   9.88619493  0.02191746  7.72019850
   1.58424885  7.76624495  7.67482143
   4.31076941  3.99303679  7.88049355
   7.13359693 11.61286097  7.67978693
   7.10769020  7.89272673  7.66635391
   4.36160993 11.59740863  7.68958549
   9.84062838  7.75947450  7.74393682
   4.34422604  7.60200397  7.90712114
   9.83384477  3.90418990  7.74566639
   1.56783039  3.85653697  7.69488061
   1.63386092 11.62905210  7.74021595
   7.14408966  9.77089339  9.69053740
   1.59470749  9.66224827  9.64428077
   4.47152637  9.71815210  9.66405883
   4.35150040  1.75041061  9.73722097
   1.54730484  1.94115889  9.64428570
   9.98128270  9.72376540  9.62336755
   9.94871698  1.94435903  9.64269220
   7.11792136  1.77144238  9.71778724
   9.99287652  5.83069287  9.67277389
   7.01268777  6.23370720  9.70099706
   1.69603750  5.83587077  9.60391517
   5.72195384  2.90140729  8.83649191
 


--------------------------------------------------------------------------------------------------------


 use parallel FFT for wavefunctions z direction half grid
 k-point  1 :   0.0000 0.0000 0.0000  plane waves:   28608

 maximum and minimum number of plane-waves per node :      4774     4761

 maximum number of plane-waves:     28608
 maximum index in each direction: 
   IXMAX=   17   IYMAX=   18   IZMAX=   40
   IXMIN=  -17   IYMIN=  -18   IZMIN=    0

 NGX is ok and might be reduce to  70
 NGY is ok and might be reduce to  74
 NGZ is ok and might be reduce to 162

 real space projection operators:
  total allocation   :      65981.50 KBytes
  max/ min on nodes  :      11222.72      10860.53


 parallel 3D FFT for wavefunctions:
    minimum data exchange during FFTs selected (reduces bandwidth)
 parallel 3D FFT for charge:
    minimum data exchange during FFTs selected (reduces bandwidth)


 total amount of memory used by VASP on root node   107744. kBytes
========================================================================

   base      :      30000. kBytes
   nonlr-proj:      13438. kBytes
   fftplans  :      26017. kBytes
   grid      :      26227. kBytes
   one-center:        884. kBytes
   wavefun   :      11178. kBytes
 
     INWAV:  cpu time    1.96: real time    1.98
 Broyden mixing: mesh for mixing (old mesh)
   NGX = 35   NGY = 37   NGZ = 81
  (NGX  =144   NGY  =160   NGZ  =324)
  gives a total of 104895 points

 charge density for first step will be calculated from the start-wavefunctions


--------------------------------------------------------------------------------------------------------


 Maximum index for non-local projection operator          916
 Maximum index for augmentation-charges         3169 (set IRDMAX)


--------------------------------------------------------------------------------------------------------


 initial charge from wavefunction
 First call to EWALD:  gamma=   0.121
 Maximum number of real-space cells 4x 3x 2
 Maximum number of reciprocal cells 2x 2x 4

 FEWALD executed in parallel
    FEWALD:  cpu time    0.01: real time    0.01


----------------------------------------- Iteration    1(   1)  ---------------------------------------


    POTLOK:  cpu time    0.32: real time    0.32
    SETDIJ:  cpu time    2.53: real time    2.53
     EDDAV:  cpu time    7.94: real time    7.95
       DOS:  cpu time    0.00: real time    0.00
    CHARGE:  cpu time    1.07: real time    1.07
    MIXING:  cpu time    0.01: real time    0.01
    --------------------------------------------
      LOOP:  cpu time   11.88: real time   11.90

 eigenvalue-minimisations  :  1896
 total energy-change (2. order) :-0.8513567E+03  (-0.1931581E-04)
 number of electron     855.9999992 magnetization      -0.0000000
 augmentation part      -13.8983340 magnetization      -0.0000025

 DIPCOR: dipole corrections for dipol
 direction  3 min pos   227,
 dipolmoment           0.000000      0.000000      0.694320 electrons x Angstroem
 Tr[quadrupol]    -18480.293591

 energy correction for charged system         0.000000 eV
 dipol+quadrupol energy correction           -0.013810 eV
 added-field ion interaction          3.443473 eV  (added to PSCEN)


 Broyden mixing:
  rms(total) = 0.41629E-02    rms(broyden)= 0.41617E-02
  rms(prec ) = 0.42253E-02
  weight for this iteration     100.00

 Free energy of the ion-electron system (eV)
  ---------------------------------------------------
  alpha Z        PSCENC =      2138.06968981
  Ewald energy   TEWEN  =    254585.56928403
  -Hartree energ DENC   =   -320402.23853880
  -exchange      EXHF   =         0.00000000
  -V(xc)+E(xc)   XCENC  =      2234.27313371
  PAW double counting   =     65176.57064621   -64338.10031770
  entropy T*S    EENTRO =        -0.00000000
  eigenvalues    EBANDS =     -8871.73497679
  atomic energy  EATOM  =     68626.23435551
  ---------------------------------------------------
  free energy    TOTEN  =      -851.35672402 eV

  energy without entropy =     -851.35672402  energy(sigma->0) =     -851.35672402


--------------------------------------------------------------------------------------------------------




----------------------------------------- Iteration    1(   2)  ---------------------------------------


    POTLOK:  cpu time    0.32: real time    0.32
    SETDIJ:  cpu time    2.53: real time    2.53
    EDDIAG:  cpu time    1.47: real time    1.48
  RMM-DIIS:  cpu time    3.71: real time    3.71
    ORTHCH:  cpu time    0.16: real time    0.17
       DOS:  cpu time    0.00: real time    0.00
    --------------------------------------------
      LOOP:  cpu time    8.20: real time    8.21

 eigenvalue-minimisations  :  1600
 total energy-change (2. order) :-0.2044661E-04  (-0.3270811E-04)
 number of electron     855.9999992 magnetization      -0.0000000
 augmentation part      -13.8983340 magnetization      -0.0000025

 DIPCOR: dipole corrections for dipol
 direction  3 min pos   227,
 dipolmoment           0.000000      0.000000      0.691644 electrons x Angstroem
 Tr[quadrupol]    -18480.293232

 energy correction for charged system         0.000000 eV
 dipol+quadrupol energy correction           -0.013703 eV
 added-field ion interaction          3.430206 eV  (added to PSCEN)


 Free energy of the ion-electron system (eV)
  ---------------------------------------------------
  alpha Z        PSCENC =      2138.05652841
  Ewald energy   TEWEN  =    254585.56928403
  -Hartree energ DENC   =   -320402.24390398
  -exchange      EXHF   =         0.00000000
  -V(xc)+E(xc)   XCENC  =      2234.27269776
  PAW double counting   =     65176.55762476   -64338.08773302
  entropy T*S    EENTRO =        -0.00000000
  eigenvalues    EBANDS =     -8871.71559795
  atomic energy  EATOM  =     68626.23435551
  ---------------------------------------------------
  free energy    TOTEN  =      -851.35674446 eV

  energy without entropy =     -851.35674446  energy(sigma->0) =     -851.35674446


--------------------------------------------------------------------------------------------------------




 average (electrostatic) potential at core
  the test charge radii are     1.1513  0.7215  1.2059
  (the norm of the test charge is              1.0000)
       1 -84.8252       2 -84.8220       3 -84.8299       4 -84.8309       5 -84.8397
       6 -84.8321       7 -84.4762       8 -84.4646       9 -84.4485      10 -84.4665
      11 -84.4535      12 -84.4611      13 -84.5211      14 -84.5226      15 -84.5446
      16 -84.5361      17 -84.5495      18 -84.5708      19 -84.5506      20 -84.5568
      21 -84.5308      22 -84.5363      23 -84.5220      24 -84.5127      25 -84.5657
      26 -84.4098      27 -84.5079      28 -84.5691      29 -84.4436      30 -84.4926
      31 -84.5503      32 -84.1916      33 -84.5845      34 -84.0504      35 -84.6045
      36 -73.3417      37 -73.3419      38 -73.3449      39 -73.3413      40 -73.3372
      41 -73.3475      42 -73.3524      43 -73.3495      44 -73.3468      45 -73.3515
      46 -73.3414      47 -73.3504      48 -73.6989      49 -73.7236      50 -73.6969
      51 -73.6703      52 -73.6742      53 -73.6926      54 -73.6939      55 -73.6845
      56 -73.7355      57 -73.7333      58 -73.6501      59 -73.6758      60 -73.7074
      61 -73.6971      62 -73.6915      63 -73.7311      64 -73.7186      65 -73.6845
      66 -73.7107      67 -73.7225      68 -73.6519      69 -73.7436      70 -73.6606
      71 -73.7015      72 -73.5573      73 -73.5448      74 -73.6509      75 -73.5029
      76 -73.5806      77 -73.5791      78 -73.5934      79 -73.6141      80 -73.6989
      81 -73.7521      82 -73.5769      83 -73.6717      84 -74.1139      85 -73.9335
      86 -74.0034      87 -74.1341      88 -73.7925      89 -73.8715      90 -73.7588
      91 -73.8922      92 -73.7534      93 -73.8190      94 -73.9653      95 -73.9069
      96 -73.4605      97 -73.3631      98 -73.5123      99 -73.6952     100 -73.3536
     101 -73.3275     102 -73.2930     103 -73.7492     104 -73.3464     105 -73.1756
     106 -73.3377     107 -72.7811
 
 
 
 E-fermi :   0.8726     XC(G=0):  -5.7823     alpha+bet : -7.3381


 spin component 1

 k-point     1 :       0.0000    0.0000    0.0000
  band No.  band energies     occupation 
      1     -34.1706      1.00000
      2     -34.1606      1.00000
      3     -34.1347      1.00000
      4     -34.1276      1.00000
      5     -34.1256      1.00000
      6     -34.1190      1.00000
      7     -33.9182      1.00000
      8     -33.8730      1.00000
      9     -33.8504      1.00000
     10     -33.7946      1.00000
     11     -33.7325      1.00000
     12     -33.7268      1.00000
     13     -33.7255      1.00000
     14     -33.7150      1.00000
     15     -33.7123      1.00000
     16     -33.6986      1.00000
     17     -33.6884      1.00000
     18     -33.6822      1.00000
     19     -33.6792      1.00000
     20     -33.6704      1.00000
     21     -33.6677      1.00000
     22     -33.6592      1.00000
     23     -33.6459      1.00000
     24     -33.6411      1.00000
     25     -33.6334      1.00000
     26     -33.6221      1.00000
     27     -33.6168      1.00000
     28     -33.5945      1.00000
     29     -33.5907      1.00000
     30     -33.5813      1.00000
     31     -33.5773      1.00000
     32     -33.5754      1.00000
     33     -33.5679      1.00000
     34     -33.5620      1.00000
     35     -33.5385      1.00000
     36     -19.2163      1.00000
     37     -19.1401      1.00000
     38     -19.1082      1.00000
     39     -19.0296      1.00000
     40     -18.9757      1.00000
     41     -18.9384      1.00000
     42     -18.8984      1.00000
     43     -18.8666      1.00000
     44     -18.8372      1.00000
     45     -18.8155      1.00000
     46     -18.7984      1.00000
     47     -18.7272      1.00000
     48     -18.6971      1.00000
     49     -18.6909      1.00000
     50     -18.6778      1.00000
     51     -18.6495      1.00000
     52     -18.6393      1.00000
     53     -18.6290      1.00000
     54     -18.6042      1.00000
     55     -18.5976      1.00000
     56     -18.5756      1.00000
     57     -18.5555      1.00000
     58     -18.5318      1.00000
     59     -18.5084      1.00000
     60     -18.4592      1.00000
     61     -18.4369      1.00000
     62     -18.4350      1.00000
     63     -18.3876      1.00000
     64     -18.3818      1.00000
     65     -18.3563      1.00000
     66     -18.3158      1.00000
     67     -18.2910      1.00000
     68     -18.2461      1.00000
     69     -18.2292      1.00000
     70     -18.2052      1.00000
     71     -18.2011      1.00000
     72     -18.1962      1.00000
     73     -18.1853      1.00000
     74     -18.1570      1.00000
     75     -18.1056      1.00000
     76     -18.1046      1.00000
     77     -17.9906      1.00000
     78     -17.9383      1.00000
     79     -17.8859      1.00000
     80     -17.8679      1.00000
     81     -17.7981      1.00000
     82     -17.7522      1.00000
     83     -17.7228      1.00000
     84     -17.6950      1.00000
     85     -17.5299      1.00000
     86     -17.4792      1.00000
     87     -17.2859      1.00000
     88     -17.1520      1.00000
     89     -17.0629      1.00000
     90     -17.0584      1.00000
     91     -17.0432      1.00000
     92     -16.9996      1.00000
     93     -16.9232      1.00000
     94     -16.8945      1.00000
     95     -16.8464      1.00000
     96     -16.8149      1.00000
     97     -16.7702      1.00000
     98     -16.7133      1.00000
     99     -16.7084      1.00000
    100     -16.7046      1.00000
    101     -16.6699      1.00000
    102     -16.6419      1.00000
    103     -16.5932      1.00000
    104     -16.4969      1.00000
    105     -16.4709      1.00000
    106     -16.4611      1.00000
    107     -16.4408      1.00000
    108     -16.4318      1.00000
    109     -16.4187      1.00000
    110     -16.3893      1.00000
    111     -16.3773      1.00000
    112     -16.3624      1.00000
    113     -16.3577      1.00000
    114     -16.3524      1.00000
    115     -16.3374      1.00000
    116     -16.3312      1.00000
    117     -16.3218      1.00000
    118     -16.3124      1.00000
    119     -16.2920      1.00000
    120     -16.2763      1.00000
    121     -16.2591      1.00000
    122     -16.2484      1.00000
    123     -16.2292      1.00000
    124     -16.2170      1.00000
    125     -16.2038      1.00000
    126     -16.2005      1.00000
    127     -16.1901      1.00000
    128     -16.1779      1.00000
    129     -16.1546      1.00000
    130     -16.1334      1.00000
    131     -16.1271      1.00000
    132     -16.1260      1.00000
    133     -16.1157      1.00000
    134     -16.0988      1.00000
    135     -16.0942      1.00000
    136     -16.0673      1.00000
    137     -16.0471      1.00000
    138     -16.0401      1.00000
    139     -16.0005      1.00000
    140     -15.9812      1.00000
    141     -15.9605      1.00000
    142     -15.9575      1.00000
    143     -15.9172      1.00000
    144     -15.8730      1.00000
    145     -15.8325      1.00000
    146     -15.7397      1.00000
    147     -15.7205      1.00000
    148     -15.7138      1.00000
    149     -15.6489      1.00000
    150     -15.6237      1.00000
    151     -15.5334      1.00000
    152     -15.4270      1.00000
    153     -15.3960      1.00000
    154     -15.3721      1.00000
    155     -15.3386      1.00000
    156     -15.3032      1.00000
    157     -15.2962      1.00000
    158     -15.2432      1.00000
    159     -15.2300      1.00000
    160     -15.1043      1.00000
    161     -14.9589      1.00000
    162     -14.9211      1.00000
    163     -14.8064      1.00000
    164     -14.7720      1.00000
    165     -14.6822      1.00000
    166     -14.6200      1.00000
    167     -14.5694      1.00000
    168     -14.4760      1.00000
    169     -14.4312      1.00000
    170     -14.3308      1.00000
    171     -14.2581      1.00000
    172     -14.1948      1.00000
    173     -14.1624      1.00000
    174     -14.1576      1.00000
    175     -14.1252      1.00000
    176     -14.1105      1.00000
    177     -14.1000      1.00000
    178     -14.0577      1.00000
    179     -14.0532      1.00000
    180     -14.0391      1.00000
    181     -13.9961      1.00000
    182     -13.9742      1.00000
    183     -13.9567      1.00000
    184     -13.9343      1.00000
    185     -13.8871      1.00000
    186     -13.8704      1.00000
    187     -13.8688      1.00000
    188     -13.8280      1.00000
    189     -13.7998      1.00000
    190     -13.7795      1.00000
    191     -13.7620      1.00000
    192     -13.7567      1.00000
    193     -13.7251      1.00000
    194     -13.6905      1.00000
    195     -13.6607      1.00000
    196     -13.6196      1.00000
    197     -13.5617      1.00000
    198     -13.5524      1.00000
    199     -13.5062      1.00000
    200     -13.4931      1.00000
    201     -13.4531      1.00000
    202     -13.4138      1.00000
    203     -13.3626      1.00000
    204     -13.3362      1.00000
    205     -13.2008      1.00000
    206     -13.1258      1.00000
    207     -13.1146      1.00000
    208     -13.0832      1.00000
    209     -13.0622      1.00000
    210     -12.8136      1.00000
    211     -12.5809      1.00000
    212      -4.7551      1.00000
    213      -4.7159      1.00000
    214      -4.2444      1.00000
    215      -4.0599      1.00000
    216      -3.9955      1.00000
    217      -3.9550      1.00000
    218      -3.8612      1.00000
    219      -3.8069      1.00000
    220      -3.7448      1.00000
    221      -3.7340      1.00000
    222      -3.6903      1.00000
    223      -3.6657      1.00000
    224      -3.5772      1.00000
    225      -3.5269      1.00000
    226      -3.4995      1.00000
    227      -3.4257      1.00000
    228      -3.4154      1.00000
    229      -3.3795      1.00000
    230      -3.3558      1.00000
    231      -3.3482      1.00000
    232      -3.3326      1.00000
    233      -3.3217      1.00000
    234      -3.3100      1.00000
    235      -3.2949      1.00000
    236      -3.2909      1.00000
    237      -3.2755      1.00000
    238      -3.2575      1.00000
    239      -3.2448      1.00000
    240      -3.2311      1.00000
    241      -3.2025      1.00000
    242      -3.1839      1.00000
    243      -3.1790      1.00000
    244      -3.1552      1.00000
    245      -3.1368      1.00000
    246      -3.1252      1.00000
    247      -3.1141      1.00000
    248      -3.1010      1.00000
    249      -3.0851      1.00000
    250      -3.0562      1.00000
    251      -3.0396      1.00000
    252      -3.0345      1.00000
    253      -3.0240      1.00000
    254      -3.0107      1.00000
    255      -3.0007      1.00000
    256      -2.9764      1.00000
    257      -2.9615      1.00000
    258      -2.9492      1.00000
    259      -2.9307      1.00000
    260      -2.9219      1.00000
    261      -2.9079      1.00000
    262      -2.8972      1.00000
    263      -2.8695      1.00000
    264      -2.8494      1.00000
    265      -2.8238      1.00000
    266      -2.8045      1.00000
    267      -2.7998      1.00000
    268      -2.7706      1.00000
    269      -2.7443      1.00000
    270      -2.7163      1.00000
    271      -2.7014      1.00000
    272      -2.6711      1.00000
    273      -2.6334      1.00000
    274      -2.6199      1.00000
    275      -2.6043      1.00000
    276      -2.5934      1.00000
    277      -2.5719      1.00000
    278      -2.5256      1.00000
    279      -2.5159      1.00000
    280      -2.5022      1.00000
    281      -2.4862      1.00000
    282      -2.4702      1.00000
    283      -2.4552      1.00000
    284      -2.4504      1.00000
    285      -2.4290      1.00000
    286      -2.4134      1.00000
    287      -2.3902      1.00000
    288      -2.3701      1.00000
    289      -2.3491      1.00000
    290      -2.3155      1.00000
    291      -2.2953      1.00000
    292      -2.2655      1.00000
    293      -2.2448      1.00000
    294      -2.2326      1.00000
    295      -2.1826      1.00000
    296      -2.1717      1.00000
    297      -2.1577      1.00000
    298      -2.1416      1.00000
    299      -2.1193      1.00000
    300      -2.1036      1.00000
    301      -2.0794      1.00000
    302      -2.0648      1.00000
    303      -2.0548      1.00000
    304      -2.0159      1.00000
    305      -2.0105      1.00000
    306      -1.9928      1.00000
    307      -1.9846      1.00000
    308      -1.9656      1.00000
    309      -1.9414      1.00000
    310      -1.9201      1.00000
    311      -1.9105      1.00000
    312      -1.8965      1.00000
    313      -1.8832      1.00000
    314      -1.8752      1.00000
    315      -1.8611      1.00000
    316      -1.8563      1.00000
    317      -1.8358      1.00000
    318      -1.8229      1.00000
    319      -1.8191      1.00000
    320      -1.8072      1.00000
    321      -1.8046      1.00000
    322      -1.7860      1.00000
    323      -1.7741      1.00000
    324      -1.7603      1.00000
    325      -1.7383      1.00000
    326      -1.7226      1.00000
    327      -1.6986      1.00000
    328      -1.6946      1.00000
    329      -1.6779      1.00000
    330      -1.6640      1.00000
    331      -1.6335      1.00000
    332      -1.6174      1.00000
    333      -1.5956      1.00000
    334      -1.5731      1.00000
    335      -1.5583      1.00000
    336      -1.5414      1.00000
    337      -1.5126      1.00000
    338      -1.4962      1.00000
    339      -1.4857      1.00000
    340      -1.4515      1.00000
    341      -1.4325      1.00000
    342      -1.4188      1.00000
    343      -1.4107      1.00000
    344      -1.3893      1.00000
    345      -1.3824      1.00000
    346      -1.3620      1.00000
    347      -1.3573      1.00000
    348      -1.3357      1.00000
    349      -1.3266      1.00000
    350      -1.3116      1.00000
    351      -1.3085      1.00000
    352      -1.2879      1.00000
    353      -1.2669      1.00000
    354      -1.2568      1.00000
    355      -1.2319      1.00000
    356      -1.2215      1.00000
    357      -1.2094      1.00000
    358      -1.1968      1.00000
    359      -1.1887      1.00000
    360      -1.1819      1.00000
    361      -1.1633      1.00000
    362      -1.1422      1.00000
    363      -1.1315      1.00000
    364      -1.1152      1.00000
    365      -1.0998      1.00000
    366      -1.0915      1.00000
    367      -1.0771      1.00000
    368      -1.0718      1.00000
    369      -1.0688      1.00000
    370      -1.0570      1.00000
    371      -1.0371      1.00000
    372      -1.0312      1.00000
    373      -1.0221      1.00000
    374      -1.0103      1.00000
    375      -1.0016      1.00000
    376      -0.9983      1.00000
    377      -0.9894      1.00000
    378      -0.9615      1.00000
    379      -0.9565      1.00000
    380      -0.9457      1.00000
    381      -0.9192      1.00000
    382      -0.9109      1.00000
    383      -0.8658      1.00000
    384      -0.8558      1.00000
    385      -0.8318      1.00000
    386      -0.7920      1.00000
    387      -0.7731      1.00000
    388      -0.7640      1.00000
    389      -0.7551      1.00000
    390      -0.7522      1.00000
    391      -0.7383      1.00000
    392      -0.7300      1.00000
    393      -0.7202      1.00000
    394      -0.7119      1.00000
    395      -0.6999      1.00000
    396      -0.6894      1.00000
    397      -0.6865      1.00000
    398      -0.6609      1.00000
    399      -0.6269      1.00000
    400      -0.6227      1.00000
    401      -0.6037      1.00000
    402      -0.5842      1.00000
    403      -0.5657      1.00000
    404      -0.5573      1.00000
    405      -0.5495      1.00000
    406      -0.5404      1.00000
    407      -0.5324      1.00000
    408      -0.5179      1.00000
    409      -0.5124      1.00000
    410      -0.5029      1.00000
    411      -0.4906      1.00000
    412      -0.4797      1.00000
    413      -0.4534      1.00000
    414      -0.4447      1.00000
    415      -0.4372      1.00000
    416      -0.4140      1.00000
    417      -0.4070      1.00000
    418      -0.3816      1.00000
    419      -0.3336      1.00000
    420      -0.2816      1.00000
    421      -0.2533      1.00000
    422      -0.1869      1.00000
    423      -0.1023      1.00000
    424       0.0310      1.00000
    425       0.0328      1.00000
    426       0.5143      1.00000
    427       0.5584      1.00000
    428       0.6417      1.00000
    429       1.6552      0.00000
    430       1.7442      0.00000
    431       1.7464      0.00000
    432       1.7477      0.00000
    433       1.7516      0.00000
    434       1.7628      0.00000
    435       1.7651      0.00000
    436       1.7667      0.00000
    437       1.7867      0.00000
    438       1.7891      0.00000
    439       1.8289      0.00000
    440       1.8387      0.00000
    441       1.8431      0.00000
    442       1.8460      0.00000
    443       1.8634      0.00000
    444       1.8658      0.00000
    445       1.8729      0.00000
    446       1.8751      0.00000
    447       1.8784      0.00000
    448       1.9119      0.00000
    449       1.9203      0.00000
    450       1.9502      0.00000
    451       1.9504      0.00000
    452       1.9535      0.00000
    453       1.9584      0.00000
    454       1.9634      0.00000
    455       1.9661      0.00000
    456       1.9667      0.00000
    457       1.9695      0.00000
    458       1.9713      0.00000
    459       1.9757      0.00000
    460       1.9804      0.00000
    461       1.9829      0.00000
    462       1.9842      0.00000
    463       1.9925      0.00000
    464       1.9959      0.00000
    465       2.0041      0.00000
    466       2.0049      0.00000
    467       2.0176      0.00000
    468       2.0197      0.00000
    469       2.0296      0.00000
    470       2.0334      0.00000
    471       2.0414      0.00000
    472       2.0453      0.00000
    473       2.0466      0.00000
    474       2.0597      0.00000
    475       2.0657      0.00000
    476       2.0729      0.00000
    477       2.0753      0.00000
    478       2.0767      0.00000
    479       2.0801      0.00000
    480       2.0856      0.00000
    481       2.0879      0.00000
    482       2.0935      0.00000
    483       2.0964      0.00000
    484       2.1033      0.00000
    485       2.1088      0.00000
    486       2.1098      0.00000
    487       2.1122      0.00000
    488       2.1138      0.00000
    489       2.1157      0.00000
    490       2.1217      0.00000
    491       2.1275      0.00000
    492       2.1304      0.00000
    493       2.1311      0.00000
    494       2.1328      0.00000
    495       2.1432      0.00000
    496       2.1440      0.00000
    497       2.1489      0.00000
    498       2.1505      0.00000
    499       2.1535      0.00000
    500       2.1577      0.00000
    501       2.1605      0.00000
    502       2.1621      0.00000
    503       2.1672      0.00000
    504       2.1702      0.00000
    505       2.1726      0.00000
    506       2.1748      0.00000
    507       2.1761      0.00000
    508       2.1811      0.00000
    509       2.1857      0.00000
    510       2.1875      0.00000
    511       2.1889      0.00000
    512       2.1902      0.00000
    513       2.1914      0.00000
    514       2.1924      0.00000
    515       2.1974      0.00000
    516       2.2001      0.00000
    517       2.2011      0.00000
    518       2.2041      0.00000
    519       2.2057      0.00000
    520       2.2081      0.00000
    521       2.2094      0.00000
    522       2.2128      0.00000
    523       2.2145      0.00000
    524       2.2155      0.00000
    525       2.2166      0.00000
    526       2.2188      0.00000
    527       2.2227      0.00000
    528       2.2261      0.00000
    529       2.2277      0.00000
    530       2.2309      0.00000
    531       2.2336      0.00000
    532       2.2354      0.00000
    533       2.2423      0.00000
    534       2.2447      0.00000
    535       2.2449      0.00000
    536       2.2495      0.00000
    537       2.2541      0.00000
    538       2.2584      0.00000
    539       2.2589      0.00000
    540       2.2646      0.00000
    541       2.2688      0.00000
    542       2.2712      0.00000
    543       2.2793      0.00000
    544       2.2833      0.00000
    545       2.2864      0.00000
    546       2.2874      0.00000
    547       2.2896      0.00000
    548       2.2913      0.00000
    549       2.2932      0.00000
    550       2.2964      0.00000
    551       2.2980      0.00000
    552       2.3010      0.00000
    553       2.3053      0.00000
    554       2.3081      0.00000
    555       2.3122      0.00000
    556       2.3161      0.00000
    557       2.3173      0.00000
    558       2.3267      0.00000
    559       2.3331      0.00000
    560       2.3377      0.00000
    561       2.3394      0.00000
    562       2.3446      0.00000
    563       2.3482      0.00000
    564       2.3488      0.00000
    565       2.3522      0.00000
    566       2.3525      0.00000
    567       2.3600      0.00000
    568       2.3612      0.00000

 spin component 2

 k-point     1 :       0.0000    0.0000    0.0000
  band No.  band energies     occupation 
      1     -34.1706      1.00000
      2     -34.1606      1.00000
      3     -34.1347      1.00000
      4     -34.1276      1.00000
      5     -34.1256      1.00000
      6     -34.1190      1.00000
      7     -33.9182      1.00000
      8     -33.8730      1.00000
      9     -33.8504      1.00000
     10     -33.7946      1.00000
     11     -33.7325      1.00000
     12     -33.7268      1.00000
     13     -33.7255      1.00000
     14     -33.7150      1.00000
     15     -33.7123      1.00000
     16     -33.6986      1.00000
     17     -33.6884      1.00000
     18     -33.6822      1.00000
     19     -33.6792      1.00000
     20     -33.6704      1.00000
     21     -33.6677      1.00000
     22     -33.6592      1.00000
     23     -33.6459      1.00000
     24     -33.6411      1.00000
     25     -33.6334      1.00000
     26     -33.6221      1.00000
     27     -33.6168      1.00000
     28     -33.5945      1.00000
     29     -33.5907      1.00000
     30     -33.5813      1.00000
     31     -33.5773      1.00000
     32     -33.5754      1.00000
     33     -33.5679      1.00000
     34     -33.5620      1.00000
     35     -33.5385      1.00000
     36     -19.2163      1.00000
     37     -19.1401      1.00000
     38     -19.1082      1.00000
     39     -19.0296      1.00000
     40     -18.9757      1.00000
     41     -18.9384      1.00000
     42     -18.8984      1.00000
     43     -18.8666      1.00000
     44     -18.8372      1.00000
     45     -18.8155      1.00000
     46     -18.7984      1.00000
     47     -18.7272      1.00000
     48     -18.6971      1.00000
     49     -18.6909      1.00000
     50     -18.6778      1.00000
     51     -18.6495      1.00000
     52     -18.6393      1.00000
     53     -18.6290      1.00000
     54     -18.6042      1.00000
     55     -18.5976      1.00000
     56     -18.5756      1.00000
     57     -18.5555      1.00000
     58     -18.5318      1.00000
     59     -18.5084      1.00000
     60     -18.4592      1.00000
     61     -18.4369      1.00000
     62     -18.4350      1.00000
     63     -18.3876      1.00000
     64     -18.3818      1.00000
     65     -18.3563      1.00000
     66     -18.3158      1.00000
     67     -18.2910      1.00000
     68     -18.2461      1.00000
     69     -18.2292      1.00000
     70     -18.2052      1.00000
     71     -18.2011      1.00000
     72     -18.1962      1.00000
     73     -18.1853      1.00000
     74     -18.1570      1.00000
     75     -18.1056      1.00000
     76     -18.1046      1.00000
     77     -17.9906      1.00000
     78     -17.9383      1.00000
     79     -17.8859      1.00000
     80     -17.8679      1.00000
     81     -17.7981      1.00000
     82     -17.7522      1.00000
     83     -17.7228      1.00000
     84     -17.6950      1.00000
     85     -17.5299      1.00000
     86     -17.4792      1.00000
     87     -17.2859      1.00000
     88     -17.1520      1.00000
     89     -17.0629      1.00000
     90     -17.0584      1.00000
     91     -17.0432      1.00000
     92     -16.9996      1.00000
     93     -16.9232      1.00000
     94     -16.8945      1.00000
     95     -16.8464      1.00000
     96     -16.8149      1.00000
     97     -16.7702      1.00000
     98     -16.7133      1.00000
     99     -16.7084      1.00000
    100     -16.7046      1.00000
    101     -16.6699      1.00000
    102     -16.6419      1.00000
    103     -16.5932      1.00000
    104     -16.4969      1.00000
    105     -16.4709      1.00000
    106     -16.4611      1.00000
    107     -16.4408      1.00000
    108     -16.4318      1.00000
    109     -16.4187      1.00000
    110     -16.3893      1.00000
    111     -16.3773      1.00000
    112     -16.3624      1.00000
    113     -16.3577      1.00000
    114     -16.3524      1.00000
    115     -16.3374      1.00000
    116     -16.3312      1.00000
    117     -16.3218      1.00000
    118     -16.3124      1.00000
    119     -16.2920      1.00000
    120     -16.2763      1.00000
    121     -16.2591      1.00000
    122     -16.2484      1.00000
    123     -16.2292      1.00000
    124     -16.2170      1.00000
    125     -16.2038      1.00000
    126     -16.2005      1.00000
    127     -16.1901      1.00000
    128     -16.1779      1.00000
    129     -16.1546      1.00000
    130     -16.1334      1.00000
    131     -16.1271      1.00000
    132     -16.1260      1.00000
    133     -16.1157      1.00000
    134     -16.0988      1.00000
    135     -16.0942      1.00000
    136     -16.0673      1.00000
    137     -16.0471      1.00000
    138     -16.0401      1.00000
    139     -16.0005      1.00000
    140     -15.9812      1.00000
    141     -15.9605      1.00000
    142     -15.9575      1.00000
    143     -15.9172      1.00000
    144     -15.8730      1.00000
    145     -15.8325      1.00000
    146     -15.7397      1.00000
    147     -15.7205      1.00000
    148     -15.7138      1.00000
    149     -15.6489      1.00000
    150     -15.6237      1.00000
    151     -15.5334      1.00000
    152     -15.4270      1.00000
    153     -15.3960      1.00000
    154     -15.3721      1.00000
    155     -15.3386      1.00000
    156     -15.3032      1.00000
    157     -15.2962      1.00000
    158     -15.2432      1.00000
    159     -15.2300      1.00000
    160     -15.1043      1.00000
    161     -14.9589      1.00000
    162     -14.9211      1.00000
    163     -14.8064      1.00000
    164     -14.7720      1.00000
    165     -14.6822      1.00000
    166     -14.6200      1.00000
    167     -14.5694      1.00000
    168     -14.4760      1.00000
    169     -14.4312      1.00000
    170     -14.3308      1.00000
    171     -14.2581      1.00000
    172     -14.1948      1.00000
    173     -14.1624      1.00000
    174     -14.1576      1.00000
    175     -14.1252      1.00000
    176     -14.1105      1.00000
    177     -14.1000      1.00000
    178     -14.0577      1.00000
    179     -14.0532      1.00000
    180     -14.0391      1.00000
    181     -13.9961      1.00000
    182     -13.9742      1.00000
    183     -13.9567      1.00000
    184     -13.9343      1.00000
    185     -13.8871      1.00000
    186     -13.8704      1.00000
    187     -13.8688      1.00000
    188     -13.8280      1.00000
    189     -13.7998      1.00000
    190     -13.7795      1.00000
    191     -13.7620      1.00000
    192     -13.7567      1.00000
    193     -13.7251      1.00000
    194     -13.6905      1.00000
    195     -13.6607      1.00000
    196     -13.6196      1.00000
    197     -13.5617      1.00000
    198     -13.5524      1.00000
    199     -13.5062      1.00000
    200     -13.4931      1.00000
    201     -13.4531      1.00000
    202     -13.4138      1.00000
    203     -13.3626      1.00000
    204     -13.3362      1.00000
    205     -13.2008      1.00000
    206     -13.1258      1.00000
    207     -13.1146      1.00000
    208     -13.0832      1.00000
    209     -13.0622      1.00000
    210     -12.8136      1.00000
    211     -12.5809      1.00000
    212      -4.7551      1.00000
    213      -4.7159      1.00000
    214      -4.2444      1.00000
    215      -4.0599      1.00000
    216      -3.9955      1.00000
    217      -3.9550      1.00000
    218      -3.8612      1.00000
    219      -3.8069      1.00000
    220      -3.7448      1.00000
    221      -3.7340      1.00000
    222      -3.6903      1.00000
    223      -3.6657      1.00000
    224      -3.5772      1.00000
    225      -3.5269      1.00000
    226      -3.4995      1.00000
    227      -3.4257      1.00000
    228      -3.4154      1.00000
    229      -3.3795      1.00000
    230      -3.3558      1.00000
    231      -3.3482      1.00000
    232      -3.3326      1.00000
    233      -3.3217      1.00000
    234      -3.3100      1.00000
    235      -3.2949      1.00000
    236      -3.2909      1.00000
    237      -3.2755      1.00000
    238      -3.2575      1.00000
    239      -3.2448      1.00000
    240      -3.2311      1.00000
    241      -3.2025      1.00000
    242      -3.1839      1.00000
    243      -3.1790      1.00000
    244      -3.1552      1.00000
    245      -3.1368      1.00000
    246      -3.1252      1.00000
    247      -3.1141      1.00000
    248      -3.1010      1.00000
    249      -3.0851      1.00000
    250      -3.0562      1.00000
    251      -3.0396      1.00000
    252      -3.0345      1.00000
    253      -3.0240      1.00000
    254      -3.0107      1.00000
    255      -3.0007      1.00000
    256      -2.9764      1.00000
    257      -2.9615      1.00000
    258      -2.9492      1.00000
[...]
      8.52485      9.74088      7.78072        -0.000768      0.000104      0.003539
      0.26416      0.00607      9.50419        -0.009931     -0.001705     -0.009844
      5.75757     11.59567      9.50905        -0.002241     -0.005245     -0.001599
      0.27028      7.77490      9.48848         0.015928     -0.004884      0.013627
      5.88031      7.95187      9.56616         0.006671      0.004890      0.011358
      0.24711      3.86610      9.49618         0.002965      0.002746     -0.003603
      7.09531      3.88202      0.00000         1.131042     -0.005680     -0.453240
      1.60531      0.00000      0.00000         1.148799     -0.004680     -0.469863
      7.09531      7.76403      0.00000         1.135305      0.015245     -0.454541
      9.84031      0.00000      0.00000        -1.147866     -0.007566     -0.466953
      9.84031      3.88202      0.00000        -1.141323     -0.006749     -0.467207
      1.60531      3.88202      0.00000         1.150403      0.016692     -0.462166
      4.35031      7.76403      0.00000        -1.143484     -0.011398     -0.454548
      4.35031      0.00000      0.00000        -1.133782     -0.002793     -0.454308
      7.09531      0.00000      0.00000         1.128635     -0.008520     -0.442335
      4.35031      3.88202      0.00000        -1.140748      0.012200     -0.449180
      9.84031      7.76403      0.00000        -1.139380      0.014830     -0.464427
      1.60531      7.76403      0.00000         1.146317     -0.013504     -0.458403
      4.35031      9.70504      1.94101        -0.350481      0.030019     -0.301867
      7.09531      9.70504      1.94101         0.325586     -0.011527     -0.299457
      4.35031      1.94101      1.94101        -0.342777     -0.043700     -0.275481
      1.60531      1.94101      1.94101         0.369943      0.014752     -0.325099
      9.84031      1.94101      1.94101        -0.360324      0.007778     -0.333348
      9.84031      9.70504      1.94101        -0.354847      0.022389     -0.360772
      7.09531      1.94101      1.94101         0.331236      0.084558     -0.350127
      1.60531      9.70504      1.94101         0.372026     -0.034509     -0.302135
      4.35031      5.82303      1.94101        -0.354917     -0.027204     -0.374886
      1.60531      5.82303      1.94101         0.369693     -0.006473     -0.366722
      9.84031      5.82303      1.94101        -0.350820      0.009775     -0.291364
      7.09531      5.82303      1.94101         0.335148     -0.015312     -0.327922
      7.09863      0.02440      3.86040        -0.002918     -0.010731      0.010054
      4.34361      7.76131      3.86674        -0.001526     -0.001445      0.004623
      7.08645      7.74614      3.88714        -0.003567      0.008849     -0.005826
      9.82491      7.77199      3.86757         0.000277     -0.008153      0.000762
      1.61770     11.64488      3.86526         0.000010      0.000036     -0.001298
      9.84293      0.00325      3.87742        -0.004582      0.004689      0.000439
      4.35086     11.63365      3.90501        -0.003338     -0.007090      0.003311
      1.60013      7.75960      3.87499         0.004500      0.001366     -0.010995
      4.34989      3.88160      3.88133        -0.004846      0.001004     -0.001653
      9.82692      3.88390      3.86912        -0.002072     -0.003695     -0.002327
      7.08739      3.89615      3.89749        -0.001270     -0.000433     -0.006528
      1.60120      3.87944      3.87323        -0.003161     -0.009283     -0.001979
      7.10071      1.96104      5.81480        -0.005214     -0.001805     -0.009104
      7.08934      9.73082      5.74653         0.005572     -0.007010      0.016883
      4.34817      9.62452      5.86089         0.003171     -0.012016      0.008500
      9.82661      5.83162      5.80616         0.000453     -0.002285      0.007446
      1.60707      9.71351      5.80099        -0.002913     -0.004836     -0.010076
      7.07613      5.82458      5.86664        -0.000278      0.009122     -0.008685
      4.34454      1.97616      5.83382        -0.002292      0.003234     -0.008326
      9.84218      1.94990      5.80964        -0.000436      0.004472     -0.001358
      4.32336      5.82156      5.79414         0.004301      0.003521      0.004411
      1.58554      5.81183      5.79385        -0.008953      0.003538     -0.010965
      1.60352      1.92651      5.80607        -0.001565     -0.004427     -0.004776
      9.84828      9.70906      5.80794         0.004904     -0.001553     -0.000987
      7.12593      3.92995      7.82121         0.008506      0.006604     -0.014899
      9.88619      0.02192      7.72020        -0.002818     -0.004302     -0.004920
      1.58425      7.76624      7.67482         0.011914      0.003182     -0.017724
      4.31077      3.99304      7.88049         0.011035      0.003036      0.005232
      7.13360     11.61286      7.67979        -0.015215      0.008707      0.006998
      7.10769      7.89273      7.66635         0.006859     -0.001858      0.010980
      4.36161     11.59741      7.68959         0.000179      0.004601      0.003266
      9.84063      7.75947      7.74394         0.007868      0.000293     -0.004488
      4.34423      7.60200      7.90712         0.014068     -0.016042      0.035843
      9.83384      3.90419      7.74567         0.008287      0.010057      0.008850
      1.56783      3.85654      7.69488        -0.001555     -0.001663      0.004354
      1.63386     11.62905      7.74022        -0.008600     -0.016145     -0.004183
      7.14409      9.77089      9.69054        -0.004257      0.008872      0.006446
      1.59471      9.66225      9.64428         0.002575     -0.012581      0.001409
      4.47153      9.71815      9.66406         0.007586      0.001590      0.001199
      4.35150      1.75041      9.73722        -0.002831      0.007755     -0.003235
      1.54730      1.94116      9.64429        -0.016030     -0.001105     -0.011666
      9.98128      9.72377      9.62337        -0.007475      0.003408     -0.004953
      9.94872      1.94436      9.64269         0.004362      0.000923      0.003542
      7.11792      1.77144      9.71779        -0.012906      0.005365      0.005027
      9.99288      5.83069      9.67277         0.023597     -0.016468      0.004174
      7.01269      6.23371      9.70100         0.025258      0.011391      0.008682
      1.69604      5.83587      9.60392         0.020475      0.002036      0.006405
      5.72195      2.90141      8.83649         0.005009      0.012269      0.014097
 -----------------------------------------------------------------------------------
    total drift:                               -0.034370      0.028421     -0.078878


--------------------------------------------------------------------------------------------------------



  FREE ENERGIE OF THE ION-ELECTRON SYSTEM (eV)
  ---------------------------------------------------
  free  energy   TOTEN  =      -871.56724249 eV

  energy  without entropy=     -871.56724249  energy(sigma->0) =     -871.56724249
 


--------------------------------------------------------------------------------------------------------


    POTLOK:  cpu time    2.85: real time    2.85


--------------------------------------------------------------------------------------------------------


 stress matrix after NEB project (eV)
    -69.79051      2.24112      0.80847
      2.24112   -116.13250     -0.15841
      0.80847     -0.15841    -65.82948
  FORCES: max atom, RMS     0.041713    0.010459
  FORCE total and by dimension    0.108184    0.035843
  Stress total and by dimension  150.673142  116.132498


--------------------------------------------------------------------------------------------------------


  
 reached required accuracy - stopping structural energy minimisation
 writing wavefunctions
     LOOP+:  cpu time   63.25: real time   66.52
    4ORBIT:  cpu time    0.00: real time    0.00
 


 total charge     
 
# of ion     s       p       d       f       tot
------------------------------------------------
  1        1.992   5.764   0.872   0.774   9.401
  2        1.992   5.764   0.872   0.773   9.401
  3        1.992   5.764   0.872   0.773   9.401
  4        1.992   5.764   0.872   0.774   9.402
  5        1.992   5.764   0.872   0.774   9.402
  6        1.992   5.764   0.872   0.774   9.401
  7        1.993   5.818   0.902   0.722   9.435
  8        1.994   5.819   0.904   0.722   9.438
  9        1.994   5.819   0.904   0.722   9.439
 10        1.993   5.818   0.901   0.721   9.433
 11        1.994   5.819   0.905   0.722   9.439
 12        1.994   5.819   0.904   0.722   9.439
 13        1.995   5.820   0.914   0.726   9.455
 14        1.995   5.820   0.917   0.727   9.459
 15        1.994   5.819   0.909   0.724   9.446
 16        1.994   5.819   0.909   0.724   9.447
 17        1.995   5.821   0.918   0.727   9.461
 18        1.994   5.819   0.908   0.724   9.445
 19        1.996   5.821   0.925   0.728   9.471
 20        1.995   5.819   0.917   0.727   9.457
 21        1.996   5.821   0.924   0.728   9.469
 22        1.995   5.821   0.923   0.728   9.468
 23        1.994   5.820   0.915   0.726   9.456
 24        1.992   5.816   0.901   0.732   9.441
 25        1.990   5.812   0.881   0.721   9.404
 26        1.993   5.816   0.906   0.737   9.452
 27        1.999   5.812   0.967   0.747   9.525
 28        1.993   5.817   0.905   0.724   9.438
 29        1.992   5.815   0.903   0.736   9.446
 30        1.995   5.821   0.926   0.728   9.469
 31        2.002   5.778   0.990   0.775   9.544
 32        2.003   5.788   1.021   0.800   9.611
 33        2.001   5.779   0.989   0.770   9.539
 34        2.009   5.757   1.139   0.857   9.763
 35        2.001   5.778   0.986   0.767   9.531
 36        1.600   3.384   0.000   0.000   4.985
 37        1.600   3.384   0.000   0.000   4.984
 38        1.600   3.384   0.000   0.000   4.985
 39        1.600   3.384   0.000   0.000   4.985
 40        1.600   3.384   0.000   0.000   4.984
 41        1.600   3.384   0.000   0.000   4.985
 42        1.600   3.384   0.000   0.000   4.985
 43        1.600   3.384   0.000   0.000   4.984
 44        1.600   3.384   0.000   0.000   4.985
 45        1.600   3.384   0.000   0.000   4.985
 46        1.600   3.384   0.000   0.000   4.984
 47        1.600   3.384   0.000   0.000   4.985
 48        1.597   3.456   0.000   0.000   5.052
 49        1.597   3.459   0.000   0.000   5.055
 50        1.596   3.456   0.000   0.000   5.052
 51        1.596   3.455   0.000   0.000   5.052
 52        1.596   3.456   0.000   0.000   5.052
 53        1.597   3.456   0.000   0.000   5.053
 54        1.597   3.457   0.000   0.000   5.053
 55        1.596   3.456   0.000   0.000   5.052
 56        1.597   3.460   0.000   0.000   5.056
 57        1.597   3.459   0.000   0.000   5.056
 58        1.596   3.454   0.000   0.000   5.050
 59        1.597   3.455   0.000   0.000   5.051
 60        1.598   3.467   0.000   0.000   5.065
 61        1.598   3.464   0.000   0.000   5.062
 62        1.598   3.466   0.000   0.000   5.063
 63        1.598   3.468   0.000   0.000   5.066
 64        1.598   3.467   0.000   0.000   5.065
 65        1.598   3.465   0.000   0.000   5.063
 66        1.598   3.463   0.000   0.000   5.061
 67        1.598   3.466   0.000   0.000   5.064
 68        1.597   3.462   0.000   0.000   5.059
 69        1.599   3.469   0.000   0.000   5.068
 70        1.597   3.463   0.000   0.000   5.061
 71        1.598   3.466   0.000   0.000   5.064
 72        1.597   3.455   0.000   0.000   5.052
 73        1.598   3.455   0.000   0.000   5.053
 74        1.598   3.453   0.000   0.000   5.051
 75        1.597   3.447   0.000   0.000   5.044
 76        1.597   3.453   0.000   0.000   5.050
 77        1.597   3.452   0.000   0.000   5.049
 78        1.597   3.454   0.000   0.000   5.051
 79        1.598   3.458   0.000   0.000   5.056
 80        1.598   3.460   0.000   0.000   5.058
 81        1.598   3.469   0.000   0.000   5.067
 82        1.597   3.455   0.000   0.000   5.052
 83        1.598   3.462   0.000   0.000   5.059
 84        1.593   3.459   0.000   0.000   5.052
 85        1.599   3.482   0.000   0.000   5.081
 86        1.600   3.482   0.000   0.000   5.082
 87        1.591   3.449   0.000   0.000   5.040
 88        1.599   3.478   0.000   0.000   5.077
 89        1.600   3.480   0.000   0.000   5.080
 90        1.598   3.474   0.000   0.000   5.073
 91        1.599   3.475   0.000   0.000   5.074
 92        1.595   3.456   0.000   0.000   5.051
 93        1.598   3.473   0.000   0.000   5.072
 94        1.600   3.482   0.000   0.000   5.082
 95        1.599   3.478   0.000   0.000   5.077
 96        1.603   3.436   0.000   0.000   5.039
 97        1.602   3.409   0.000   0.000   5.011
 98        1.605   3.426   0.000   0.000   5.031
 99        1.603   3.400   0.000   0.000   5.003
100        1.602   3.412   0.000   0.000   5.014
101        1.601   3.413   0.000   0.000   5.015
102        1.601   3.413   0.000   0.000   5.015
103        1.604   3.403   0.000   0.000   5.007
104        1.601   3.410   0.000   0.000   5.011
105        1.614   3.399   0.000   0.000   5.013
106        1.599   3.399   0.000   0.000   4.998
107        0.687   0.638   8.052   0.000   9.378
------------------------------------------------
tot      184.025 448.077  40.299  26.056 698.457

 


 magnetization (x)
 
# of ion     s       p       d       f       tot
------------------------------------------------
  1        0.000  -0.000  -0.000   0.000   0.000
  2       -0.000  -0.000  -0.000  -0.000  -0.000
  3        0.000  -0.000   0.000   0.000   0.000
  4        0.000  -0.000   0.000   0.000   0.000
  5       -0.000  -0.000   0.000  -0.000  -0.000
  6        0.000  -0.000   0.000  -0.000  -0.000
  7       -0.000  -0.000  -0.000  -0.000  -0.000
  8       -0.000  -0.000  -0.000   0.000  -0.000
  9        0.000  -0.000  -0.000  -0.000  -0.000
 10       -0.000  -0.000   0.000   0.000  -0.000
 11       -0.000  -0.000  -0.000   0.000  -0.000
 12       -0.000  -0.000  -0.000   0.000  -0.000
 13        0.000  -0.000   0.000   0.000   0.000
 14        0.000  -0.000  -0.000  -0.000   0.000
 15        0.000  -0.000   0.000  -0.000  -0.000
 16        0.000   0.000   0.000   0.000   0.000
 17        0.000  -0.000   0.000   0.000   0.000
 18        0.000  -0.000   0.000  -0.000  -0.000
 19       -0.000   0.000   0.000   0.000   0.000
 20       -0.000   0.000   0.000   0.000   0.000
 21       -0.000   0.000  -0.000   0.000   0.000
 22       -0.000   0.000   0.000   0.000   0.000
 23       -0.000   0.000  -0.000   0.000  -0.000
 24        0.000   0.000   0.000   0.000   0.000
 25        0.000   0.000   0.000   0.000   0.000
 26        0.000   0.000  -0.000  -0.000  -0.000
 27        0.000   0.000  -0.000  -0.000   0.000
 28       -0.000   0.000   0.000  -0.000  -0.000
 29       -0.000   0.000  -0.000   0.000   0.000
 30       -0.000   0.000  -0.000   0.000   0.000
 31        0.000  -0.000   0.000  -0.000  -0.000
 32       -0.000  -0.000   0.000   0.000  -0.000
 33        0.000   0.000  -0.000   0.000   0.000
 34       -0.000  -0.000  -0.000   0.000  -0.000
 35       -0.000   0.000  -0.000   0.000   0.000
 36       -0.000   0.000   0.000   0.000   0.000
 37        0.000  -0.000   0.000   0.000  -0.000
 38        0.000   0.000   0.000   0.000   0.000
 39        0.000  -0.000   0.000   0.000  -0.000
 40        0.000   0.000   0.000   0.000   0.000
 41        0.000  -0.000   0.000   0.000  -0.000
 42       -0.000   0.000   0.000   0.000   0.000
 43        0.000  -0.000   0.000   0.000  -0.000
 44        0.000  -0.000   0.000   0.000   0.000
 45        0.000  -0.000   0.000   0.000  -0.000
 46       -0.000   0.000   0.000   0.000   0.000
 47        0.000   0.000   0.000   0.000   0.000
 48       -0.000   0.000   0.000   0.000   0.000
 49       -0.000  -0.000   0.000   0.000  -0.000
 50       -0.000  -0.000   0.000   0.000  -0.000
 51       -0.000   0.000   0.000   0.000   0.000
 52       -0.000  -0.000   0.000   0.000  -0.000
 53       -0.000  -0.000   0.000   0.000  -0.000
 54       -0.000  -0.000   0.000   0.000  -0.000
 55       -0.000   0.000   0.000   0.000   0.000
 56       -0.000   0.000   0.000   0.000  -0.000
 57        0.000   0.000   0.000   0.000   0.000
 58       -0.000   0.000   0.000   0.000  -0.000
 59       -0.000   0.000   0.000   0.000  -0.000
 60        0.000  -0.000   0.000   0.000  -0.000
 61       -0.000  -0.000   0.000   0.000  -0.000
 62        0.000   0.000   0.000   0.000   0.000
 63        0.000   0.000   0.000   0.000   0.000
 64        0.000   0.000   0.000   0.000   0.000
 65       -0.000  -0.000   0.000   0.000  -0.000
 66        0.000  -0.000   0.000   0.000  -0.000
 67        0.000   0.000   0.000   0.000   0.000
 68        0.000  -0.000   0.000   0.000  -0.000
 69        0.000   0.000   0.000   0.000   0.000
 70       -0.000  -0.000   0.000   0.000  -0.000
 71        0.000   0.000   0.000   0.000   0.000
 72        0.000  -0.000   0.000   0.000  -0.000
 73        0.000   0.000   0.000   0.000   0.000
 74        0.000   0.000   0.000   0.000   0.000
 75        0.000  -0.000   0.000   0.000  -0.000
 76        0.000  -0.000   0.000   0.000  -0.000
 77       -0.000  -0.000   0.000   0.000  -0.000
 78       -0.000  -0.000   0.000   0.000  -0.000
 79       -0.000  -0.000   0.000   0.000  -0.000
 80        0.000   0.000   0.000   0.000   0.000
 81        0.000  -0.000   0.000   0.000  -0.000
 82       -0.000   0.000   0.000   0.000  -0.000
 83       -0.000  -0.000   0.000   0.000  -0.000
 84       -0.000  -0.000   0.000   0.000  -0.000
 85        0.000   0.000   0.000   0.000   0.000
 86        0.000   0.000   0.000   0.000   0.000
 87        0.000  -0.000   0.000   0.000   0.000
 88       -0.000   0.000   0.000   0.000  -0.000
 89        0.000  -0.000   0.000   0.000  -0.000
 90        0.000   0.000   0.000   0.000   0.000
 91        0.000  -0.000   0.000   0.000  -0.000
 92        0.000  -0.000   0.000   0.000  -0.000
 93       -0.000  -0.000   0.000   0.000  -0.000
 94        0.000   0.000   0.000   0.000   0.000
 95       -0.000  -0.000   0.000   0.000  -0.000
 96       -0.000   0.000   0.000   0.000  -0.000
 97       -0.000  -0.000   0.000   0.000  -0.000
 98        0.000  -0.000   0.000   0.000  -0.000
 99       -0.000  -0.000   0.000   0.000  -0.000
100        0.000  -0.000   0.000   0.000  -0.000
101       -0.000   0.000   0.000   0.000   0.000
102        0.000  -0.000   0.000   0.000  -0.000
103       -0.000   0.000   0.000   0.000   0.000
104        0.000  -0.000   0.000   0.000   0.000
105       -0.000  -0.000   0.000   0.000  -0.000
106        0.000   0.000   0.000   0.000   0.000
107       -0.000  -0.000  -0.000   0.000  -0.000
------------------------------------------------
tot       -0.000  -0.000  -0.000   0.000  -0.000

 

 total amount of memory used by VASP on root node   107744. kBytes
========================================================================

   base      :      30000. kBytes
   nonlr-proj:      13438. kBytes
   fftplans  :      26017. kBytes
   grid      :      26227. kBytes
   one-center:        884. kBytes
   wavefun   :      11178. kBytes
 
  
  
 General timing and accounting informations for this job:
 ========================================================
  
                  Total CPU time used (sec):       87.137
                            User time (sec):       81.237
                          System time (sec):        5.900
                         Elapsed time (sec):       93.978
  
                   Maximum memory used (kb):      293940.
                   Average memory used (kb):           0.
  
                          Minor page faults:        63091
                          Major page faults:            2
                 Voluntary context switches:        22386
