       N       E                     dE             d eps       ncg     rms          rms(c)
DAV:   1    -0.884796300991E+03   -0.88480E+03   -0.44748E-04  2304   0.488E-02    0.782E-02
RMM:   2    -0.884796277968E+03    0.23024E-04   -0.16077E-04  1516   0.287E-02
   1 F= -.90579535E+03 E0= -.90579535E+03  d E =-.905795E+03  mag=     0.0000
       N       E                     dE             d eps       ncg     rms          rms(c)
DAV:   1    -0.884796697908E+03   -0.39692E-03   -0.23418E-02  2928   0.142E-01    0.418E-02
RMM:   2    -0.884796726337E+03   -0.28429E-04   -0.67113E-04  1603   0.453E-02
   2 F= -.90579586E+03 E0= -.90579586E+03  d E =-.515268E-03  mag=     0.0000
       N       E                     dE             d eps       ncg     rms          rms(c)
DAV:   1    -0.884797003896E+03   -0.30599E-03   -0.10625E-02  2752   0.973E-02    0.374E-02
RMM:   2    -0.884797031843E+03   -0.27947E-04   -0.37081E-04  1362   0.316E-02
   3 F= -.90579627E+03 E0= -.90579627E+03  d E =-.402202E-03  mag=     0.0000
       N       E                     dE             d eps       ncg     rms          rms(c)
DAV:   1    -0.884797291866E+03   -0.28797E-03   -0.53874E-03  2664   0.642E-02    0.359E-02
RMM:   2    -0.884797312298E+03   -0.20431E-04   -0.20240E-04  1269   0.245E-02
   4 F= -.90579658E+03 E0= -.90579658E+03  d E =-.313339E-03  mag=     0.0000
       N       E                     dE             d eps       ncg     rms          rms(c)
DAV:   1    -0.884794402939E+03    0.28889E-02   -0.41004E-01  2368   0.522E-01    0.114E-01
RMM:   2    -0.884795325699E+03   -0.92276E-03   -0.10593E-02  2682   0.124E-01    0.684E-02
RMM:   3    -0.884795390276E+03   -0.64577E-04   -0.10006E-03  1727   0.393E-02    0.588E-02
RMM:   4    -0.884795411236E+03   -0.20960E-04   -0.30257E-04  1440   0.338E-02
   5 F= -.90579417E+03 E0= -.90579417E+03  d E =0.241144E-02  mag=     0.0000
       N       E                     dE             d eps       ncg     rms          rms(c)
DAV:   1    -0.884793918143E+03    0.14721E-02   -0.16926E-01  2384   0.328E-01    0.882E-02
RMM:   2    -0.884794287977E+03   -0.36983E-03   -0.44023E-03  2237   0.739E-02    0.631E-02
RMM:   3    -0.884794336839E+03   -0.48862E-04   -0.54958E-04  1592   0.303E-02
   6 F= -.90579283E+03 E0= -.90579283E+03  d E =0.133973E-02  mag=     0.0000
       N       E                     dE             d eps       ncg     rms          rms(c)
DAV:   1    -0.884790349751E+03    0.39382E-02   -0.89841E-01  2384   0.758E-01    0.210E-01
RMM:   2    -0.884792203818E+03   -0.18541E-02   -0.23033E-02  2871   0.173E-01    0.150E-01
RMM:   3    -0.884792480783E+03   -0.27697E-03   -0.33363E-03  2207   0.537E-02    0.126E-01
RMM:   4    -0.884792556013E+03   -0.75230E-04   -0.69071E-04  1683   0.405E-02
   7 F= -.90579033E+03 E0= -.90579033E+03  d E =0.249508E-02  mag=     0.0000
       N       E                     dE             d eps       ncg     rms          rms(c)
DAV:   1    -0.884792744658E+03   -0.26387E-03   -0.40969E-01  2536   0.500E-01    0.121E-01
RMM:   2    -0.884793616367E+03   -0.87171E-03   -0.10529E-02  2691   0.116E-01    0.804E-02
RMM:   3    -0.884793655766E+03   -0.39399E-04   -0.94246E-04  1631   0.380E-02
   8 F= -.90579204E+03 E0= -.90579204E+03  d E =-.170938E-02  mag=     0.0000
       N       E                     dE             d eps       ncg     rms          rms(c)
DAV:   1    -0.884793300303E+03    0.31606E-03   -0.34924E-02  2808   0.166E-01    0.560E-02
RMM:   2    -0.884793401626E+03   -0.10132E-03   -0.97712E-04  1692   0.436E-02    0.281E-02
RMM:   3    -0.884793421412E+03   -0.19787E-04   -0.17487E-04  1394   0.257E-02
   9 F= -.90579163E+03 E0= -.90579163E+03  d E =0.411479E-03  mag=     0.0000
       N       E                     dE             d eps       ncg     rms          rms(c)
DAV:   1    -0.884793787281E+03   -0.38566E-03   -0.57702E-02  2688   0.182E-01    0.505E-02
RMM:   2    -0.884793876303E+03   -0.89022E-04   -0.12477E-03  1526   0.414E-02    0.354E-02
RMM:   3    -0.884793907241E+03   -0.30938E-04   -0.22883E-04  1260   0.230E-02
  10 F= -.90579229E+03 E0= -.90579229E+03  d E =-.654723E-03  mag=     0.0000
       N       E                     dE             d eps       ncg     rms          rms(c)
DAV:   1    -0.884794395297E+03   -0.51899E-03   -0.94570E-02  2384   0.228E-01    0.695E-02
RMM:   2    -0.884794561714E+03   -0.16642E-03   -0.21932E-03  1671   0.500E-02    0.535E-02
RMM:   3    -0.884794595879E+03   -0.34164E-04   -0.36231E-04  1262   0.271E-02
  11 F= -.90579314E+03 E0= -.90579314E+03  d E =-.853222E-03  mag=     0.0000
       N       E                     dE             d eps       ncg     rms          rms(c)
DAV:   1    -0.884795210046E+03   -0.64833E-03   -0.15879E-01  2400   0.294E-01    0.927E-02
RMM:   2    -0.884795513721E+03   -0.30367E-03   -0.37787E-03  2025   0.643E-02    0.692E-02
RMM:   3    -0.884795578242E+03   -0.64521E-04   -0.64655E-04  1474   0.304E-02
  12 F= -.90579434E+03 E0= -.90579434E+03  d E =-.119562E-02  mag=     0.0000
       N       E                     dE             d eps       ncg     rms          rms(c)
DAV:   1    -0.884790343362E+03    0.51704E-02   -0.12208E+00  2384   0.811E-01    0.193E-01
RMM:   2    -0.884792719012E+03   -0.23757E-02   -0.27941E-02  2818   0.164E-01    0.113E-01
RMM:   3    -0.884793012069E+03   -0.29306E-03   -0.31342E-03  1857   0.538E-02    0.101E-01
RMM:   4    -0.884793055285E+03   -0.43216E-04   -0.62536E-04  1524   0.381E-02
  13 F= -.90579126E+03 E0= -.90579126E+03  d E =0.307899E-02  mag=     0.0000
       N       E                     dE             d eps       ncg     rms          rms(c)
DAV:   1    -0.884793123120E+03   -0.11105E-03   -0.67788E-04  2448   0.387E-02    0.351E-02
RMM:   2    -0.884793125165E+03   -0.20457E-05   -0.11826E-04  1405   0.228E-02
  14 F= -.90579132E+03 E0= -.90579132E+03  d E =-.662338E-04  mag=     0.0000
       N       E                     dE             d eps       ncg     rms          rms(c)
DAV:   1    -0.884793616690E+03   -0.49357E-03   -0.24609E-01  2384   0.367E-01    0.846E-02
RMM:   2    -0.884794081566E+03   -0.46488E-03   -0.54788E-03  2147   0.782E-02    0.563E-02
RMM:   3    -0.884794118339E+03   -0.36773E-04   -0.54571E-04  1360   0.335E-02
  15 F= -.90579262E+03 E0= -.90579262E+03  d E =-.130137E-02  mag=     0.0000
       N       E                     dE             d eps       ncg     rms          rms(c)
DAV:   1    -0.884794564835E+03   -0.48327E-03   -0.14066E-01  2440   0.287E-01    0.869E-02
RMM:   2    -0.884794827286E+03   -0.26245E-03   -0.33338E-03  2067   0.687E-02    0.666E-02
RMM:   3    -0.884794864027E+03   -0.36741E-04   -0.44486E-04  1439   0.300E-02
  16 F= -.90579369E+03 E0= -.90579369E+03  d E =-.106239E-02  mag=     0.0000
       N       E                     dE             d eps       ncg     rms          rms(c)
DAV:   1    -0.884793504824E+03    0.13225E-02   -0.17958E-01  2400   0.336E-01    0.767E-02
RMM:   2    -0.884793941685E+03   -0.43686E-03   -0.47623E-03  2515   0.879E-02    0.390E-02
RMM:   3    -0.884793999202E+03   -0.57517E-04   -0.57874E-04  1500   0.334E-02
  17 F= -.90579255E+03 E0= -.90579255E+03  d E =0.113777E-02  mag=     0.0000
       N       E                     dE             d eps       ncg     rms          rms(c)
DAV:   1    -0.884794090673E+03   -0.14899E-03   -0.15048E-03  2352   0.502E-02    0.310E-02
RMM:   2    -0.884794098017E+03   -0.73446E-05   -0.86819E-05  1302   0.197E-02
  18 F= -.90579268E+03 E0= -.90579268E+03  d E =-.127775E-03  mag=     0.0000
       N       E                     dE             d eps       ncg     rms          rms(c)
DAV:   1    -0.884794271652E+03   -0.18098E-03   -0.13370E-02  2704   0.100E-01    0.229E-02
RMM:   2    -0.884794305701E+03   -0.34049E-04   -0.36332E-04  1285   0.289E-02
  19 F= -.90579297E+03 E0= -.90579297E+03  d E =-.293088E-03  mag=     0.0000
       N       E                     dE             d eps       ncg     rms          rms(c)
DAV:   1    -0.884794532718E+03   -0.26107E-03   -0.36178E-02  2448   0.156E-01    0.394E-02
RMM:   2    -0.884794609467E+03   -0.76749E-04   -0.96709E-04  1513   0.425E-02
  20 F= -.90579346E+03 E0= -.90579346E+03  d E =-.490842E-03  mag=     0.0000
       N       E                     dE             d eps       ncg     rms          rms(c)
DAV:   1    -0.884795025036E+03   -0.49232E-03   -0.21056E-01  2392   0.355E-01    0.968E-02
RMM:   2    -0.884795456949E+03   -0.43191E-03   -0.54207E-03  2236   0.834E-02    0.727E-02
RMM:   3    -0.884795512155E+03   -0.55206E-04   -0.62513E-04  1551   0.331E-02
  21 F= -.90579468E+03 E0= -.90579468E+03  d E =-.122255E-02  mag=     0.0000
       N       E                     dE             d eps       ncg     rms          rms(c)
DAV:   1    -0.884789848729E+03    0.56082E-02   -0.15174E+00  2368   0.944E-01    0.215E-01
RMM:   2    -0.884792793840E+03   -0.29451E-02   -0.35758E-02  3011   0.193E-01    0.132E-01
RMM:   3    -0.884793126196E+03   -0.33236E-03   -0.34138E-03  1896   0.631E-02    0.117E-01
RMM:   4    -0.884793189742E+03   -0.63546E-04   -0.83666E-04  1626   0.417E-02
  22 F= -.90579138E+03 E0= -.90579138E+03  d E =0.330496E-02  mag=     0.0000
       N       E                     dE             d eps       ncg     rms          rms(c)
DAV:   1    -0.884793409148E+03   -0.28295E-03   -0.50463E-01  2400   0.539E-01    0.121E-01
RMM:   2    -0.884794456900E+03   -0.10478E-02   -0.12114E-02  2699   0.113E-01    0.811E-02
RMM:   3    -0.884794512237E+03   -0.55337E-04   -0.10312E-03  1360   0.382E-02    0.723E-02
RMM:   4    -0.884794515682E+03   -0.34454E-05   -0.25818E-04  1265   0.306E-02
  23 F= -.90579334E+03 E0= -.90579334E+03  d E =-.195817E-02  mag=     0.0000
       N       E                     dE             d eps       ncg     rms          rms(c)
DAV:   1    -0.884794013508E+03    0.49873E-03   -0.54326E-02  2448   0.178E-01    0.438E-02
RMM:   2    -0.884794131580E+03   -0.11807E-03   -0.14052E-03  1449   0.420E-02    0.284E-02
RMM:   3    -0.884794143329E+03   -0.11749E-04   -0.17778E-04  1215   0.239E-02
  24 F= -.90579277E+03 E0= -.90579277E+03  d E =0.569383E-03  mag=     0.0000
       N       E                     dE             d eps       ncg     rms          rms(c)
DAV:   1    -0.884794373609E+03   -0.24203E-03   -0.38305E-02  2440   0.150E-01    0.341E-02
RMM:   2    -0.884794458976E+03   -0.85367E-04   -0.86282E-04  1314   0.345E-02
  25 F= -.90579328E+03 E0= -.90579328E+03  d E =-.517415E-03  mag=     0.0000
       N       E                     dE             d eps       ncg     rms          rms(c)
DAV:   1    -0.884794746322E+03   -0.37271E-03   -0.13514E-02  2648   0.103E-01    0.304E-02
RMM:   2    -0.884794774126E+03   -0.27804E-04   -0.46423E-04  1250   0.295E-02
  26 F= -.90579358E+03 E0= -.90579358E+03  d E =-.300990E-03  mag=     0.0000
       N       E                     dE             d eps       ncg     rms          rms(c)
DAV:   1    -0.884795124413E+03   -0.37809E-03   -0.10876E-01  2416   0.253E-01    0.690E-02
RMM:   2    -0.884795341487E+03   -0.21707E-03   -0.26983E-03  1700   0.576E-02    0.522E-02
RMM:   3    -0.884795364062E+03   -0.22575E-04   -0.29729E-04  1241   0.272E-02
  27 F= -.90579448E+03 E0= -.90579448E+03  d E =-.891385E-03  mag=     0.0000
       N       E                     dE             d eps       ncg     rms          rms(c)
DAV:   1    -0.884792692284E+03    0.26492E-02   -0.55804E-01  2384   0.558E-01    0.120E-01
RMM:   2    -0.884793803205E+03   -0.11109E-02   -0.12654E-02  2445   0.108E-01    0.725E-02
RMM:   3    -0.884793913946E+03   -0.11074E-03   -0.11695E-03  1400   0.389E-02    0.648E-02
RMM:   4    -0.884793922385E+03   -0.84389E-05   -0.20812E-04  1288   0.305E-02
  28 F= -.90579250E+03 E0= -.90579250E+03  d E =0.197710E-02  mag=     0.0000
       N       E                     dE             d eps       ncg     rms          rms(c)
DAV:   1    -0.884794275557E+03   -0.36161E-03   -0.43731E-01  2400   0.490E-01    0.106E-01
RMM:   2    -0.884795171541E+03   -0.89598E-03   -0.10026E-02  2313   0.927E-02    0.720E-02
RMM:   3    -0.884795230425E+03   -0.58884E-04   -0.89142E-04  1315   0.339E-02
  29 F= -.90579429E+03 E0= -.90579429E+03  d E =-.179477E-02  mag=     0.0000
       N       E                     dE             d eps       ncg     rms          rms(c)
DAV:   1    -0.884795207128E+03   -0.35588E-04   -0.37801E-04  1880   0.369E-02    0.465E-02
RMM:   2    -0.884795221665E+03   -0.14537E-04   -0.87387E-05  1255   0.229E-02
  30 F= -.90579430E+03 E0= -.90579430E+03  d E =-.683648E-05  mag=     0.0000
       N       E                     dE             d eps       ncg     rms          rms(c)
DAV:   1    -0.884794658777E+03    0.54835E-03   -0.47653E-02  2504   0.169E-01    0.352E-02
RMM:   2    -0.884794779202E+03   -0.12042E-03   -0.11430E-03  1322   0.376E-02    0.147E-02
RMM:   3    -0.884794795307E+03   -0.16105E-04   -0.12476E-04  1204   0.219E-02
  31 F= -.90579374E+03 E0= -.90579374E+03  d E =0.560821E-03  mag=     0.0000
       N       E                     dE             d eps       ncg     rms          rms(c)
DAV:   1    -0.884795303753E+03   -0.52455E-03   -0.53595E-01  2368   0.548E-01    0.125E-01
RMM:   2    -0.884796312289E+03   -0.10085E-02   -0.11859E-02  2554   0.110E-01    0.814E-02
RMM:   3    -0.884796430157E+03   -0.11787E-03   -0.13995E-03  1605   0.393E-02    0.722E-02
RMM:   4    -0.884796449735E+03   -0.19578E-04   -0.24258E-04  1417   0.324E-02
  32 F= -.90579572E+03 E0= -.90579572E+03  d E =-.197646E-02  mag=     0.0000
       N       E                     dE             d eps       ncg     rms          rms(c)
DAV:   1    -0.884796292398E+03    0.13776E-03   -0.93135E-03  2576   0.763E-02    0.208E-02
RMM:   2    -0.884796318743E+03   -0.26346E-04   -0.28031E-04  1286   0.218E-02
  33 F= -.90579554E+03 E0= -.90579554E+03  d E =0.176715E-03  mag=     0.0000
       N       E                     dE             d eps       ncg     rms          rms(c)
DAV:   1    -0.884796750575E+03   -0.45818E-03   -0.11278E-01  2400   0.252E-01    0.588E-02
RMM:   2    -0.884796978389E+03   -0.22781E-03   -0.26423E-03  1703   0.536E-02    0.343E-02
RMM:   3    -0.884797017886E+03   -0.39497E-04   -0.35233E-04  1244   0.288E-02
  34 F= -.90579648E+03 E0= -.90579648E+03  d E =-.936590E-03  mag=     0.0000
       N       E                     dE             d eps       ncg     rms          rms(c)
DAV:   1    -0.884797667073E+03   -0.68868E-03   -0.13450E-01  2400   0.272E-01    0.771E-02
RMM:   2    -0.884797907814E+03   -0.24074E-03   -0.30825E-03  1810   0.550E-02    0.589E-02
RMM:   3    -0.884797941669E+03   -0.33854E-04   -0.40653E-04  1312   0.289E-02
  35 F= -.90579754E+03 E0= -.90579754E+03  d E =-.106614E-02  mag=     0.0000
       N       E                     dE             d eps       ncg     rms          rms(c)
DAV:   1    -0.884796827549E+03    0.10803E-02   -0.12112E-01  2432   0.267E-01    0.569E-02
RMM:   2    -0.884797090944E+03   -0.26339E-03   -0.28210E-03  1778   0.588E-02    0.294E-02
RMM:   3    -0.884797140695E+03   -0.49751E-04   -0.50171E-04  1252   0.330E-02
  36 F= -.90579661E+03 E0= -.90579661E+03  d E =0.932276E-03  mag=     0.0000
       N       E                     dE             d eps       ncg     rms          rms(c)
DAV:   1    -0.884797148412E+03   -0.57468E-04   -0.13495E-04  1448   0.249E-02    0.272E-02
RMM:   2    -0.884797151098E+03   -0.26865E-05   -0.36416E-05  1188   0.165E-02
  37 F= -.90579662E+03 E0= -.90579662E+03  d E =-.918038E-05  mag=     0.0000
       N       E                     dE             d eps       ncg     rms          rms(c)
DAV:   1    -0.884796588667E+03    0.55974E-03   -0.46205E-02  2392   0.174E-01    0.405E-02
RMM:   2    -0.884796670693E+03   -0.82025E-04   -0.10290E-03  1469   0.397E-02    0.329E-02
RMM:   3    -0.884796685385E+03   -0.14692E-04   -0.15267E-04  1308   0.258E-02
  38 F= -.90579609E+03 E0= -.90579609E+03  d E =0.530583E-03  mag=     0.0000
       N       E                     dE             d eps       ncg     rms          rms(c)
DAV:   1    -0.884795253616E+03    0.14171E-02   -0.18987E-01  2376   0.334E-01    0.802E-02
RMM:   2    -0.884795619966E+03   -0.36635E-03   -0.43851E-03  2051   0.708E-02    0.632E-02
RMM:   3    -0.884795661315E+03   -0.41349E-04   -0.48983E-04  1471   0.342E-02
  39 F= -.90579491E+03 E0= -.90579491E+03  d E =0.117787E-02  mag=     0.0000
       N       E                     dE             d eps       ncg     rms          rms(c)
DAV:   1    -0.884795069757E+03    0.55021E-03   -0.14765E+00  2376   0.915E-01    0.187E-01
RMM:   2    -0.884798192616E+03   -0.31229E-02   -0.34935E-02  3007   0.176E-01    0.114E-01
RMM:   3    -0.884798420564E+03   -0.22795E-03   -0.28494E-03  1737   0.566E-02    0.106E-01
RMM:   4    -0.884798405616E+03    0.14948E-04   -0.50460E-04  1539   0.369E-02
  40 F= -.90579817E+03 E0= -.90579817E+03  d E =-.325467E-02  mag=     0.0000
       N       E                     dE             d eps       ncg     rms          rms(c)
DAV:   1    -0.884798959413E+03   -0.53885E-03   -0.13882E-01  2488   0.306E-01    0.750E-02
RMM:   2    -0.884799183825E+03   -0.22441E-03   -0.31914E-03  2198   0.718E-02    0.503E-02
RMM:   3    -0.884799242531E+03   -0.58706E-04   -0.60706E-04  1559   0.332E-02
  41 F= -.90579910E+03 E0= -.90579910E+03  d E =-.934880E-03  mag=     0.0000
       N       E                     dE             d eps       ncg     rms          rms(c)
DAV:   1    -0.884797667501E+03    0.15163E-02   -0.22446E-01  2512   0.368E-01    0.685E-02
RMM:   2    -0.884798177568E+03   -0.51007E-03   -0.53894E-03  2162   0.748E-02    0.315E-02
RMM:   3    -0.884798223585E+03   -0.46017E-04   -0.52289E-04  1291   0.349E-02
  42 F= -.90579800E+03 E0= -.90579800E+03  d E =0.110190E-02  mag=     0.0000
       N       E                     dE             d eps       ncg     rms          rms(c)
DAV:   1    -0.884798753407E+03   -0.57584E-03   -0.34921E-01  2368   0.454E-01    0.974E-02
RMM:   2    -0.884799487957E+03   -0.73455E-03   -0.84836E-03  2597   0.995E-02    0.529E-02
RMM:   3    -0.884799565109E+03   -0.77152E-04   -0.85837E-04  1530   0.383E-02
  43 F= -.90579956E+03 E0= -.90579956E+03  d E =-.156587E-02  mag=     0.0000
       N       E                     dE             d eps       ncg     rms          rms(c)
DAV:   1    -0.884798742600E+03    0.74536E-03   -0.89105E-02  2448   0.259E-01    0.550E-02
RMM:   2    -0.884798975252E+03   -0.23265E-03   -0.25282E-03  2196   0.688E-02    0.226E-02
RMM:   3    -0.884799030629E+03   -0.55378E-04   -0.47496E-04  1274   0.334E-02
  44 F= -.90579896E+03 E0= -.90579896E+03  d E =0.603259E-03  mag=     0.0000
       N       E                     dE             d eps       ncg     rms          rms(c)
DAV:   1    -0.884799373591E+03   -0.39834E-03   -0.26937E-02  2680   0.132E-01    0.352E-02
RMM:   2    -0.884799428885E+03   -0.55294E-04   -0.69191E-04  1323   0.333E-02
  45 F= -.90579949E+03 E0= -.90579949E+03  d E =-.524874E-03  mag=     0.0000
       N       E                     dE             d eps       ncg     rms          rms(c)
DAV:   1    -0.884800096309E+03   -0.72272E-03   -0.82817E-02  2368   0.249E-01    0.713E-02
RMM:   2    -0.884800289107E+03   -0.19280E-03   -0.25794E-03  2211   0.758E-02    0.525E-02
RMM:   3    -0.884800328792E+03   -0.39685E-04   -0.44905E-04  1525   0.314E-02
  46 F= -.90580057E+03 E0= -.90580057E+03  d E =-.108041E-02  mag=     0.0000
       N       E                     dE             d eps       ncg     rms          rms(c)
DAV:   1    -0.884799672215E+03    0.61689E-03   -0.35600E-02  2536   0.163E-01    0.368E-02
RMM:   2    -0.884799761448E+03   -0.89233E-04   -0.93710E-04  1490   0.429E-02
  47 F= -.90579988E+03 E0= -.90579988E+03  d E =0.690573E-03  mag=     0.0000
       N       E                     dE             d eps       ncg     rms          rms(c)
DAV:   1    -0.884799277229E+03    0.39499E-03   -0.25154E-02  2432   0.161E-01    0.392E-02
RMM:   2    -0.884799352219E+03   -0.74991E-04   -0.95685E-04  1842   0.580E-02
  48 F= -.90579932E+03 E0= -.90579932E+03  d E =0.556150E-03  mag=     0.0000
       N       E                     dE             d eps       ncg     rms          rms(c)
DAV:   1    -0.884798829273E+03    0.44796E-03   -0.27117E-02  2432   0.183E-01    0.475E-02
RMM:   2    -0.884798937623E+03   -0.10835E-03   -0.12471E-03  2223   0.738E-02    0.388E-02
RMM:   3    -0.884798968586E+03   -0.30963E-04   -0.30641E-04  1480   0.311E-02
  49 F= -.90579887E+03 E0= -.90579887E+03  d E =0.446981E-03  mag=     0.0000
       N       E                     dE             d eps       ncg     rms          rms(c)
DAV:   1    -0.884798784905E+03    0.15272E-03   -0.17823E-02  2536   0.154E-01    0.448E-02
RMM:   2    -0.884798865428E+03   -0.80523E-04   -0.93888E-04  2114   0.720E-02
  50 F= -.90579873E+03 E0= -.90579873E+03  d E =0.145835E-03  mag=     0.0000
       N       E                     dE             d eps       ncg     rms          rms(c)
DAV:   1    -0.884799053717E+03   -0.26881E-03   -0.11868E-01  2384   0.296E-01    0.102E-01
RMM:   2    -0.884799354292E+03   -0.30057E-03   -0.40585E-03  2870   0.102E-01    0.774E-02
RMM:   3    -0.884799393966E+03   -0.39674E-04   -0.50086E-04  1678   0.348E-02
  51 F= -.90579942E+03 E0= -.90579942E+03  d E =-.696249E-03  mag=     0.0000
       N       E                     dE             d eps       ncg     rms          rms(c)
DAV:   1    -0.884791510786E+03    0.78435E-02   -0.18255E+00  2368   0.121E+00    0.356E-01
RMM:   2    -0.884795697084E+03   -0.41863E-02   -0.63497E-02  3058   0.407E-01    0.242E-01
RMM:   3    -0.884796492663E+03   -0.79558E-03   -0.94383E-03  3231   0.126E-01    0.206E-01
RMM:   4    -0.884796540269E+03   -0.47606E-04   -0.26560E-03  2749   0.668E-02    0.134E-01
RMM:   5    -0.884796808305E+03   -0.26804E-03   -0.15117E-03  2446   0.506E-02    0.798E-02
RMM:   6    -0.884796710619E+03    0.97686E-04   -0.29624E-04  1575   0.385E-02
  52 F= -.90579635E+03 E0= -.90579635E+03  d E =0.307307E-02  mag=     0.0000
       N       E                     dE             d eps       ncg     rms          rms(c)
DAV:   1    -0.884797587683E+03   -0.77938E-03   -0.19562E-01  2568   0.379E-01    0.122E-01
RMM:   2    -0.884797865235E+03   -0.27755E-03   -0.57387E-03  2871   0.117E-01    0.821E-02
RMM:   3    -0.884797897536E+03   -0.32301E-04   -0.82231E-04  1785   0.410E-02
  53 F= -.90579775E+03 E0= -.90579775E+03  d E =-.139605E-02  mag=     0.0000
       N       E                     dE             d eps       ncg     rms          rms(c)
DAV:   1    -0.884797334148E+03    0.53109E-03   -0.43950E-02  2512   0.210E-01    0.550E-02
RMM:   2    -0.884797452031E+03   -0.11788E-03   -0.19307E-03  2525   0.744E-02    0.221E-02
RMM:   3    -0.884797478836E+03   -0.26805E-04   -0.29847E-04  1504   0.317E-02
  54 F= -.90579731E+03 E0= -.90579731E+03  d E =0.434579E-03  mag=     0.0000
       N       E                     dE             d eps       ncg     rms          rms(c)
DAV:   1    -0.884797946355E+03   -0.49432E-03   -0.35737E-02  2792   0.158E-01    0.505E-02
RMM:   2    -0.884797978373E+03   -0.32018E-04   -0.95692E-04  1731   0.459E-02
  55 F= -.90579792E+03 E0= -.90579792E+03  d E =-.607853E-03  mag=     0.0000
       N       E                     dE             d eps       ncg     rms          rms(c)
DAV:   1    -0.884798114677E+03   -0.16832E-03   -0.56004E-03  2976   0.743E-02    0.354E-02
RMM:   2    -0.884798126423E+03   -0.11747E-04   -0.19596E-04  1361   0.251E-02
  56 F= -.90579812E+03 E0= -.90579812E+03  d E =-.205142E-03  mag=     0.0000
       N       E                     dE             d eps       ncg     rms          rms(c)
DAV:   1    -0.884798312096E+03   -0.19742E-03   -0.46401E-03  2272   0.536E-02    0.302E-02
RMM:   2    -0.884798317366E+03   -0.52701E-05   -0.14779E-04  1231   0.224E-02
  57 F= -.90579836E+03 E0= -.90579836E+03  d E =-.239634E-03  mag=     0.0000
       N       E                     dE             d eps       ncg     rms          rms(c)
DAV:   1    -0.884798223965E+03    0.88132E-04   -0.18202E-03  1816   0.365E-02    0.173E-02
RMM:   2    -0.884798234422E+03   -0.10457E-04   -0.60441E-05  1189   0.190E-02
  58 F= -.90579825E+03 E0= -.90579825E+03  d E =0.113668E-03  mag=     0.0000
       N       E                     dE             d eps       ncg     rms          rms(c)
DAV:   1    -0.884798978280E+03   -0.75432E-03   -0.11729E-01  2360   0.249E-01    0.798E-02
RMM:   2    -0.884799161499E+03   -0.18322E-03   -0.26332E-03  1838   0.537E-02    0.581E-02
RMM:   3    -0.884799180512E+03   -0.19013E-04   -0.29390E-04  1418   0.278E-02
  59 F= -.90579935E+03 E0= -.90579935E+03  d E =-.110343E-02  mag=     0.0000
       N       E                     dE             d eps       ncg     rms          rms(c)
DAV:   1    -0.884800076359E+03   -0.91486E-03   -0.21993E-01  2456   0.339E-01    0.115E-01
RMM:   2    -0.884800466076E+03   -0.38972E-03   -0.50577E-03  2180   0.709E-02    0.868E-02
RMM:   3    -0.884800522874E+03   -0.56797E-04   -0.68408E-04  1590   0.314E-02
  60 F= -.90580102E+03 E0= -.90580102E+03  d E =-.166794E-02  mag=     0.0000
