       N       E                     dE             d eps       ncg     rms          rms(c)
DAV:   1    -0.877870806486E+03   -0.87787E+03   -0.13410E-03  3520   0.613E-02    0.104E-01
RMM:   2    -0.877870698072E+03    0.10841E-03   -0.65573E-04  1792   0.318E-02    0.520E-02
RMM:   3    -0.877870663116E+03    0.34956E-04   -0.12931E-04  1444   0.209E-02
   1 F= -.89892541E+03 E0= -.89892541E+03  d E =-.898925E+03  mag=     0.0000
       N       E                     dE             d eps       ncg     rms          rms(c)
DAV:   1    -0.877870920069E+03   -0.22200E-03   -0.23663E-02  2864   0.176E-01    0.307E-02
RMM:   2    -0.877870979514E+03   -0.59444E-04   -0.69765E-04  1698   0.455E-02
   2 F= -.89892587E+03 E0= -.89892587E+03  d E =-.453629E-03  mag=     0.0000
       N       E                     dE             d eps       ncg     rms          rms(c)
DAV:   1    -0.877871229716E+03   -0.30965E-03   -0.38209E-02  2688   0.222E-01    0.396E-02
RMM:   2    -0.877871311867E+03   -0.82151E-04   -0.10014E-03  1844   0.472E-02    0.374E-02
RMM:   3    -0.877871321031E+03   -0.91646E-05   -0.15858E-04  1270   0.211E-02
   3 F= -.89892645E+03 E0= -.89892645E+03  d E =-.584192E-03  mag=     0.0000
       N       E                     dE             d eps       ncg     rms          rms(c)
DAV:   1    -0.877871051217E+03    0.26065E-03   -0.15392E-02  2752   0.139E-01    0.248E-02
RMM:   2    -0.877871075655E+03   -0.24438E-04   -0.34718E-04  1348   0.317E-02
   4 F= -.89892606E+03 E0= -.89892606E+03  d E =0.389147E-03  mag=    -0.0000
       N       E                     dE             d eps       ncg     rms          rms(c)
DAV:   1    -0.877871537165E+03   -0.48595E-03   -0.10222E-01  2352   0.355E-01    0.523E-02
RMM:   2    -0.877871748956E+03   -0.21179E-03   -0.24191E-03  2290   0.729E-02    0.439E-02
RMM:   3    -0.877871766859E+03   -0.17903E-04   -0.26205E-04  1281   0.248E-02
   5 F= -.89892700E+03 E0= -.89892700E+03  d E =-.934498E-03  mag=    -0.0000
       N       E                     dE             d eps       ncg     rms          rms(c)
DAV:   1    -0.877872082578E+03   -0.33362E-03   -0.32372E-01  2352   0.624E-01    0.996E-02
RMM:   2    -0.877872830783E+03   -0.74821E-03   -0.82943E-03  2734   0.122E-01    0.958E-02
RMM:   3    -0.877872873635E+03   -0.42852E-04   -0.10048E-03  1767   0.303E-02    0.883E-02
RMM:   4    -0.877872847991E+03    0.25644E-04   -0.24544E-04  1474   0.262E-02
   6 F= -.89892871E+03 E0= -.89892871E+03  d E =-.171841E-02  mag=    -0.0000
       N       E                     dE             d eps       ncg     rms          rms(c)
DAV:   1    -0.877869594102E+03    0.32795E-02   -0.67426E-01  2400   0.905E-01    0.115E-01
RMM:   2    -0.877871180421E+03   -0.15863E-02   -0.17438E-02  2783   0.188E-01    0.107E-01
RMM:   3    -0.877871257705E+03   -0.77284E-04   -0.18488E-03  2006   0.405E-02    0.991E-02
RMM:   4    -0.877871180616E+03    0.77089E-04   -0.32572E-04  1464   0.312E-02
   7 F= -.89892634E+03 E0= -.89892634E+03  d E =0.237399E-02  mag=     0.0000
       N       E                     dE             d eps       ncg     rms          rms(c)
DAV:   1    -0.877867732600E+03    0.35251E-02   -0.73661E-01  2384   0.936E-01    0.148E-01
RMM:   2    -0.877869324164E+03   -0.15916E-02   -0.17786E-02  2801   0.183E-01    0.133E-01
RMM:   3    -0.877869476102E+03   -0.15194E-03   -0.24066E-03  2108   0.421E-02    0.122E-01
RMM:   4    -0.877869446641E+03    0.29461E-04   -0.36283E-04  1544   0.323E-02
   8 F= -.89892370E+03 E0= -.89892370E+03  d E =0.263732E-02  mag=     0.0000
       N       E                     dE             d eps       ncg     rms          rms(c)
DAV:   1    -0.877869812235E+03   -0.33613E-03   -0.21237E-02  2880   0.171E-01    0.382E-02
RMM:   2    -0.877869849401E+03   -0.37166E-04   -0.72927E-04  1716   0.478E-02
   9 F= -.89892418E+03 E0= -.89892418E+03  d E =-.474147E-03  mag=     0.0000
       N       E                     dE             d eps       ncg     rms          rms(c)
DAV:   1    -0.877869397457E+03    0.41478E-03   -0.26275E-02  2704   0.181E-01    0.396E-02
RMM:   2    -0.877869440831E+03   -0.43374E-04   -0.73156E-04  1660   0.410E-02
  10 F= -.89892368E+03 E0= -.89892368E+03  d E =0.500556E-03  mag=    -0.0000
       N       E                     dE             d eps       ncg     rms          rms(c)
DAV:   1    -0.877868668973E+03    0.72848E-03   -0.65865E-02  2432   0.302E-01    0.559E-02
RMM:   2    -0.877868830776E+03   -0.16180E-03   -0.20050E-03  2406   0.734E-02    0.433E-02
RMM:   3    -0.877868844594E+03   -0.13818E-04   -0.21993E-04  1406   0.235E-02
  11 F= -.89892293E+03 E0= -.89892293E+03  d E =0.743260E-03  mag=    -0.0000
       N       E                     dE             d eps       ncg     rms          rms(c)
DAV:   1    -0.877869099430E+03   -0.26865E-03   -0.83733E-02  2384   0.315E-01    0.440E-02
RMM:   2    -0.877869305978E+03   -0.20655E-03   -0.21261E-03  2190   0.679E-02    0.315E-02
RMM:   3    -0.877869332071E+03   -0.26092E-04   -0.24531E-04  1298   0.235E-02
  12 F= -.89892376E+03 E0= -.89892376E+03  d E =-.829219E-03  mag=    -0.0000
       N       E                     dE             d eps       ncg     rms          rms(c)
DAV:   1    -0.877869467676E+03   -0.16170E-03   -0.31100E-01  2352   0.603E-01    0.910E-02
RMM:   2    -0.877870210240E+03   -0.74256E-03   -0.84265E-03  2744   0.125E-01    0.918E-02
RMM:   3    -0.877870264861E+03   -0.54621E-04   -0.11235E-03  1795   0.310E-02    0.858E-02
RMM:   4    -0.877870234957E+03    0.29904E-04   -0.14241E-04  1440   0.246E-02
  13 F= -.89892532E+03 E0= -.89892532E+03  d E =-.155285E-02  mag=     0.0000
       N       E                     dE             d eps       ncg     rms          rms(c)
DAV:   1    -0.877869687444E+03    0.57742E-03   -0.10545E+00  2400   0.110E+00    0.160E-01
RMM:   2    -0.877872144177E+03   -0.24567E-02   -0.26304E-02  2846   0.220E-01    0.148E-01
RMM:   3    -0.877872418186E+03   -0.27401E-03   -0.39176E-03  2288   0.506E-02    0.136E-01
RMM:   4    -0.877872367001E+03    0.51185E-04   -0.37312E-04  1570   0.347E-02
  14 F= -.89892861E+03 E0= -.89892861E+03  d E =-.329127E-02  mag=    -0.0000
       N       E                     dE             d eps       ncg     rms          rms(c)
DAV:   1    -0.877860647157E+03    0.11771E-01   -0.34204E+00  2352   0.199E+00    0.265E-01
RMM:   2    -0.877868859028E+03   -0.82119E-02   -0.89775E-02  2880   0.416E-01    0.251E-01
RMM:   3    -0.877869589393E+03   -0.73036E-03   -0.12779E-02  2767   0.901E-02    0.236E-01
RMM:   4    -0.877869278957E+03    0.31044E-03   -0.11213E-03  1748   0.391E-02    0.217E-01
RMM:   5    -0.877869122015E+03    0.15694E-03   -0.50033E-03  2459   0.566E-02    0.963E-02
RMM:   6    -0.877869104363E+03    0.17651E-04   -0.41448E-04  1532   0.307E-02
  15 F= -.89892319E+03 E0= -.89892319E+03  d E =0.541256E-02  mag=     0.0000
       N       E                     dE             d eps       ncg     rms          rms(c)
DAV:   1    -0.877869398720E+03   -0.27670E-03   -0.91815E-02  2496   0.335E-01    0.553E-02
RMM:   2    -0.877869602317E+03   -0.20360E-03   -0.23070E-03  2267   0.737E-02    0.358E-02
RMM:   3    -0.877869625629E+03   -0.23311E-04   -0.28346E-04  1432   0.248E-02
  16 F= -.89892405E+03 E0= -.89892405E+03  d E =-.858138E-03  mag=    -0.0000
       N       E                     dE             d eps       ncg     rms          rms(c)
DAV:   1    -0.877869674974E+03   -0.72657E-04   -0.14778E-03  2696   0.510E-02    0.293E-02
RMM:   2    -0.877869672376E+03    0.25986E-05   -0.72767E-05  1244   0.196E-02
  17 F= -.89892409E+03 E0= -.89892409E+03  d E =-.418036E-04  mag=    -0.0000
       N       E                     dE             d eps       ncg     rms          rms(c)
DAV:   1    -0.877869905799E+03   -0.23083E-03   -0.21759E-02  2384   0.163E-01    0.279E-02
RMM:   2    -0.877869943718E+03   -0.37919E-04   -0.49362E-04  1341   0.371E-02
  18 F= -.89892453E+03 E0= -.89892453E+03  d E =-.433868E-03  mag=    -0.0000
       N       E                     dE             d eps       ncg     rms          rms(c)
DAV:   1    -0.877870384987E+03   -0.47919E-03   -0.21025E-01  2352   0.515E-01    0.853E-02
RMM:   2    -0.877870862869E+03   -0.47788E-03   -0.55160E-03  2692   0.108E-01    0.758E-02
RMM:   3    -0.877870877515E+03   -0.14646E-04   -0.57752E-04  1634   0.263E-02
  19 F= -.89892588E+03 E0= -.89892588E+03  d E =-.135537E-02  mag=     0.0000
       N       E                     dE             d eps       ncg     rms          rms(c)
DAV:   1    -0.877866652743E+03    0.42101E-02   -0.31032E+00  2352   0.195E+00    0.284E-01
RMM:   2    -0.877873767593E+03   -0.71149E-02   -0.77761E-02  2887   0.404E-01    0.259E-01
RMM:   3    -0.877874461687E+03   -0.69409E-03   -0.10991E-02  2807   0.885E-02    0.241E-01
RMM:   4    -0.877874150485E+03    0.31120E-03   -0.16566E-03  2109   0.464E-02    0.191E-01
RMM:   5    -0.877874641637E+03   -0.49115E-03   -0.50944E-03  2619   0.622E-02    0.115E-01
RMM:   6    -0.877874436396E+03    0.20524E-03   -0.31085E-04  1532   0.341E-02    0.897E-02
RMM:   7    -0.877874295389E+03    0.14101E-03   -0.97746E-04  1882   0.300E-02    0.402E-02
RMM:   8    -0.877874295734E+03   -0.34440E-06   -0.13160E-04  1434   0.267E-02
  20 F= -.89893114E+03 E0= -.89893114E+03  d E =-.526106E-02  mag=    -0.0000
       N       E                     dE             d eps       ncg     rms          rms(c)
DAV:   1    -0.877862045590E+03    0.12250E-01   -0.36065E+00  2352   0.211E+00    0.285E-01
RMM:   2    -0.877870257289E+03   -0.82117E-02   -0.89227E-02  2858   0.431E-01    0.245E-01
RMM:   3    -0.877870899779E+03   -0.64249E-03   -0.10852E-02  2756   0.932E-02    0.231E-01
RMM:   4    -0.877870584091E+03    0.31569E-03   -0.17901E-03  2033   0.485E-02    0.186E-01
RMM:   5    -0.877870932548E+03   -0.34846E-03   -0.52845E-03  2555   0.625E-02    0.109E-01
RMM:   6    -0.877870760262E+03    0.17229E-03   -0.30987E-04  1528   0.355E-02    0.866E-02
RMM:   7    -0.877870592282E+03    0.16798E-03   -0.14266E-03  1914   0.314E-02    0.323E-02
RMM:   8    -0.877870601458E+03   -0.91756E-05   -0.90971E-05  1258   0.243E-02
  21 F= -.89892550E+03 E0= -.89892550E+03  d E =0.564139E-02  mag=     0.0000
       N       E                     dE             d eps       ncg     rms          rms(c)
DAV:   1    -0.877868731917E+03    0.18604E-02   -0.19583E+00  2352   0.155E+00    0.207E-01
RMM:   2    -0.877873188476E+03   -0.44566E-02   -0.48412E-02  2804   0.321E-01    0.183E-01
RMM:   3    -0.877873536618E+03   -0.34814E-03   -0.61251E-03  2597   0.726E-02    0.169E-01
RMM:   4    -0.877873356960E+03    0.17966E-03   -0.98702E-04  1829   0.439E-02    0.135E-01
RMM:   5    -0.877873539236E+03   -0.18228E-03   -0.28003E-03  2324   0.479E-02    0.779E-02
RMM:   6    -0.877873453719E+03    0.85517E-04   -0.17868E-04  1452   0.311E-02
  22 F= -.89892986E+03 E0= -.89892986E+03  d E =-.435470E-02  mag=     0.0000
       N       E                     dE             d eps       ncg     rms          rms(c)
DAV:   1    -0.877873693546E+03   -0.15431E-03   -0.11778E-01  2432   0.386E-01    0.829E-02
RMM:   2    -0.877874035643E+03   -0.34210E-03   -0.42933E-03  2678   0.888E-02    0.555E-02
RMM:   3    -0.877874065555E+03   -0.29912E-04   -0.47551E-04  1524   0.241E-02
  23 F= -.89893088E+03 E0= -.89893088E+03  d E =-.102006E-02  mag=     0.0000
       N       E                     dE             d eps       ncg     rms          rms(c)
DAV:   1    -0.877874426046E+03   -0.39040E-03   -0.39852E-02  2936   0.225E-01    0.619E-02
RMM:   2    -0.877874511399E+03   -0.85354E-04   -0.10999E-03  1925   0.517E-02    0.543E-02
RMM:   3    -0.877874518459E+03   -0.70595E-05   -0.18140E-04  1326   0.222E-02
  24 F= -.89893153E+03 E0= -.89893153E+03  d E =-.648931E-03  mag=    -0.0000
       N       E                     dE             d eps       ncg     rms          rms(c)
DAV:   1    -0.877874529091E+03   -0.17692E-04   -0.10942E-04  1920   0.235E-02    0.288E-02
RMM:   2    -0.877874534109E+03   -0.50183E-05   -0.40269E-05  1242   0.162E-02
  25 F= -.89893154E+03 E0= -.89893154E+03  d E =-.119659E-04  mag=    -0.0000
       N       E                     dE             d eps       ncg     rms          rms(c)
DAV:   1    -0.877871840189E+03    0.26889E-02   -0.45586E-01  2352   0.763E-01    0.101E-01
RMM:   2    -0.877872928201E+03   -0.10880E-02   -0.11742E-02  2758   0.166E-01    0.825E-02
RMM:   3    -0.877873016567E+03   -0.88366E-04   -0.13608E-03  1950   0.367E-02    0.739E-02
RMM:   4    -0.877872997388E+03    0.19179E-04   -0.25695E-04  1448   0.319E-02
  26 F= -.89892932E+03 E0= -.89892932E+03  d E =0.221493E-02  mag=     0.0000
       N       E                     dE             d eps       ncg     rms          rms(c)
DAV:   1    -0.877871928804E+03    0.10878E-02   -0.11450E-01  2528   0.381E-01    0.771E-02
RMM:   2    -0.877872171097E+03   -0.24229E-03   -0.29420E-03  2449   0.789E-02    0.622E-02
RMM:   3    -0.877872200348E+03   -0.29251E-04   -0.42755E-04  1506   0.247E-02
  27 F= -.89892823E+03 E0= -.89892823E+03  d E =0.109454E-02  mag=    -0.0000
       N       E                     dE             d eps       ncg     rms          rms(c)
DAV:   1    -0.877867010172E+03    0.51609E-02   -0.37868E+00  2352   0.218E+00    0.291E-01
RMM:   2    -0.877876263160E+03   -0.92530E-02   -0.98303E-02  2896   0.463E-01    0.245E-01
RMM:   3    -0.877877174951E+03   -0.91179E-03   -0.13497E-02  2873   0.986E-02    0.225E-01
RMM:   4    -0.877876896465E+03    0.27849E-03   -0.18630E-03  2037   0.484E-02    0.188E-01
RMM:   5    -0.877877050916E+03   -0.15445E-03   -0.39158E-03  2521   0.565E-02    0.101E-01
RMM:   6    -0.877876976864E+03    0.74052E-04   -0.30911E-04  1507   0.314E-02
  28 F= -.89893485E+03 E0= -.89893485E+03  d E =-.661829E-02  mag=    -0.0000
       N       E                     dE             d eps       ncg     rms          rms(c)
DAV:   1    -0.877875979520E+03    0.10714E-02   -0.11251E-01  2608   0.375E-01    0.608E-02
RMM:   2    -0.877876202235E+03   -0.22271E-03   -0.27784E-03  2396   0.786E-02    0.470E-02
RMM:   3    -0.877876202935E+03   -0.70057E-06   -0.26038E-04  1391   0.228E-02
  29 F= -.89893378E+03 E0= -.89893378E+03  d E =0.106896E-02  mag=    -0.0000
       N       E                     dE             d eps       ncg     rms          rms(c)
DAV:   1    -0.877876563666E+03   -0.36143E-03   -0.43965E-01  2352   0.742E-01    0.102E-01
RMM:   2    -0.877877612860E+03   -0.10492E-02   -0.11291E-02  2728   0.153E-01    0.710E-02
RMM:   3    -0.877877705944E+03   -0.93084E-04   -0.12676E-03  1899   0.353E-02    0.625E-02
RMM:   4    -0.877877700111E+03    0.58330E-05   -0.20954E-04  1426   0.294E-02
  30 F= -.89893588E+03 E0= -.89893588E+03  d E =-.209815E-02  mag=     0.0000
       N       E                     dE             d eps       ncg     rms          rms(c)
DAV:   1    -0.877877118815E+03    0.58713E-03   -0.21822E-02  2512   0.171E-01    0.486E-02
RMM:   2    -0.877877143996E+03   -0.25182E-04   -0.71297E-04  1810   0.523E-02
  31 F= -.89893546E+03 E0= -.89893546E+03  d E =0.413390E-03  mag=     0.0000
       N       E                     dE             d eps       ncg     rms          rms(c)
DAV:   1    -0.877873439770E+03    0.36790E-02   -0.71223E-01  2352   0.943E-01    0.131E-01
RMM:   2    -0.877875133828E+03   -0.16941E-02   -0.18164E-02  2810   0.195E-01    0.108E-01
RMM:   3    -0.877875279654E+03   -0.14583E-03   -0.22784E-03  2078   0.443E-02    0.993E-02
RMM:   4    -0.877875227904E+03    0.51750E-04   -0.33693E-04  1497   0.329E-02
  32 F= -.89893273E+03 E0= -.89893273E+03  d E =0.273265E-02  mag=     0.0000
       N       E                     dE             d eps       ncg     rms          rms(c)
DAV:   1    -0.877870204632E+03    0.50750E-02   -0.10711E+00  2352   0.114E+00    0.176E-01
RMM:   2    -0.877872550652E+03   -0.23460E-02   -0.26481E-02  2818   0.223E-01    0.146E-01
RMM:   3    -0.877872768400E+03   -0.21775E-03   -0.34480E-03  2322   0.494E-02    0.131E-01
RMM:   4    -0.877872725472E+03    0.42927E-04   -0.46741E-04  1578   0.345E-02
  33 F= -.89892941E+03 E0= -.89892941E+03  d E =0.332152E-02  mag=    -0.0000
       N       E                     dE             d eps       ncg     rms          rms(c)
DAV:   1    -0.877867999265E+03    0.47691E-02   -0.10086E+00  2400   0.111E+00    0.176E-01
RMM:   2    -0.877870174872E+03   -0.21756E-02   -0.25046E-02  2803   0.220E-01    0.136E-01
RMM:   3    -0.877870439604E+03   -0.26473E-03   -0.36515E-03  2408   0.506E-02    0.121E-01
RMM:   4    -0.877870417737E+03    0.21867E-04   -0.40798E-04  1544   0.333E-02
  34 F= -.89892620E+03 E0= -.89892620E+03  d E =0.320748E-02  mag=     0.0000
       N       E                     dE             d eps       ncg     rms          rms(c)
DAV:   1    -0.877868952013E+03    0.14876E-02   -0.21118E-01  2864   0.505E-01    0.979E-02
RMM:   2    -0.877869360908E+03   -0.40890E-03   -0.53785E-03  2601   0.102E-01    0.737E-02
RMM:   3    -0.877869420041E+03   -0.59133E-04   -0.85665E-04  1765   0.281E-02
  35 F= -.89892478E+03 E0= -.89892478E+03  d E =0.141745E-02  mag=    -0.0000
       N       E                     dE             d eps       ncg     rms          rms(c)
DAV:   1    -0.877869080456E+03    0.28045E-03   -0.29020E-02  2968   0.201E-01    0.682E-02
RMM:   2    -0.877869149595E+03   -0.69139E-04   -0.94322E-04  1964   0.541E-02
  36 F= -.89892430E+03 E0= -.89892430E+03  d E =0.483914E-03  mag=     0.0000
       N       E                     dE             d eps       ncg     rms          rms(c)
DAV:   1    -0.877869697478E+03   -0.61702E-03   -0.23952E-01  2368   0.546E-01    0.745E-02
RMM:   2    -0.877870284619E+03   -0.58714E-03   -0.60938E-03  2758   0.118E-01    0.457E-02
RMM:   3    -0.877870337695E+03   -0.53076E-04   -0.61930E-04  1637   0.270E-02
  37 F= -.89892582E+03 E0= -.89892582E+03  d E =-.151901E-02  mag=    -0.0000
       N       E                     dE             d eps       ncg     rms          rms(c)
DAV:   1    -0.877869614058E+03    0.67056E-03   -0.14541E+00  2352   0.134E+00    0.192E-01
RMM:   2    -0.877873158482E+03   -0.35444E-02   -0.38417E-02  2867   0.287E-01    0.183E-01
RMM:   3    -0.877873553706E+03   -0.39522E-03   -0.59848E-03  2636   0.626E-02    0.170E-01
RMM:   4    -0.877873415069E+03    0.13864E-03   -0.54715E-04  1605   0.349E-02    0.147E-01
RMM:   5    -0.877873485794E+03   -0.70725E-04   -0.20258E-03  2171   0.428E-02    0.635E-02
RMM:   6    -0.877873486929E+03   -0.11351E-05   -0.19541E-04  1466   0.282E-02
  38 F= -.89892985E+03 E0= -.89892985E+03  d E =-.403061E-02  mag=     0.0000
       N       E                     dE             d eps       ncg     rms          rms(c)
DAV:   1    -0.877847746094E+03    0.25740E-01   -0.74767E+00  2352   0.304E+00    0.428E-01
RMM:   2    -0.877865937568E+03   -0.18191E-01   -0.19602E-01  2931   0.647E-01    0.360E-01
RMM:   3    -0.877867813578E+03   -0.18760E-02   -0.28176E-02  3051   0.129E-01    0.336E-01
RMM:   4    -0.877867243407E+03    0.57017E-03   -0.28494E-03  2260   0.467E-02    0.294E-01
RMM:   5    -0.877867216660E+03    0.26747E-04   -0.77759E-03  2770   0.792E-02    0.123E-01
RMM:   6    -0.877867294916E+03   -0.78256E-04   -0.10201E-03  1806   0.344E-02    0.951E-02
RMM:   7    -0.877867036109E+03    0.25881E-03   -0.91936E-04  1742   0.371E-02    0.484E-02
RMM:   8    -0.877867062039E+03   -0.25930E-04   -0.44436E-04  1593   0.265E-02
  39 F= -.89892153E+03 E0= -.89892153E+03  d E =0.831716E-02  mag=    -0.0000
       N       E                     dE             d eps       ncg     rms          rms(c)
DAV:   1    -0.877866172854E+03    0.86326E-03   -0.13274E+00  2352   0.128E+00    0.174E-01
RMM:   2    -0.877869356625E+03   -0.31838E-02   -0.34857E-02  2854   0.279E-01    0.157E-01
RMM:   3    -0.877869659146E+03   -0.30252E-03   -0.48837E-03  2503   0.581E-02    0.145E-01
RMM:   4    -0.877869531920E+03    0.12723E-03   -0.45606E-04  1527   0.351E-02    0.127E-01
RMM:   5    -0.877869511242E+03    0.20678E-04   -0.15711E-03  2032   0.361E-02    0.608E-02
RMM:   6    -0.877869532099E+03   -0.20858E-04   -0.21437E-04  1372   0.273E-02
  40 F= -.89892478E+03 E0= -.89892478E+03  d E =-.324925E-02  mag=    -0.0000
       N       E                     dE             d eps       ncg     rms          rms(c)
DAV:   1    -0.877869104662E+03    0.40658E-03   -0.34233E-02  2432   0.206E-01    0.388E-02
RMM:   2    -0.877869174028E+03   -0.69366E-04   -0.10075E-03  1838   0.478E-02    0.283E-02
RMM:   3    -0.877869177464E+03   -0.34359E-05   -0.13422E-04  1210   0.235E-02
  41 F= -.89892430E+03 E0= -.89892430E+03  d E =0.482981E-03  mag=    -0.0000
       N       E                     dE             d eps       ncg     rms          rms(c)
DAV:   1    -0.877869484213E+03   -0.31018E-03   -0.31589E-02  2416   0.202E-01    0.319E-02
RMM:   2    -0.877869545074E+03   -0.60861E-04   -0.70407E-04  1535   0.432E-02
  42 F= -.89892481E+03 E0= -.89892481E+03  d E =-.511115E-03  mag=    -0.0000
       N       E                     dE             d eps       ncg     rms          rms(c)
DAV:   1    -0.877869855621E+03   -0.37141E-03   -0.76784E-02  2448   0.312E-01    0.533E-02
RMM:   2    -0.877870023058E+03   -0.16744E-03   -0.20074E-03  2200   0.644E-02    0.443E-02
RMM:   3    -0.877870034660E+03   -0.11602E-04   -0.21842E-04  1314   0.218E-02
  43 F= -.89892560E+03 E0= -.89892560E+03  d E =-.792187E-03  mag=     0.0000
       N       E                     dE             d eps       ncg     rms          rms(c)
DAV:   1    -0.877870248577E+03   -0.22552E-03   -0.17559E-02  2560   0.154E-01    0.406E-02
RMM:   2    -0.877870285799E+03   -0.37222E-04   -0.47144E-04  1539   0.383E-02
  44 F= -.89892597E+03 E0= -.89892597E+03  d E =-.362947E-03  mag=     0.0000
       N       E                     dE             d eps       ncg     rms          rms(c)
DAV:   1    -0.877869647758E+03    0.60082E-03   -0.65647E-02  2344   0.285E-01    0.398E-02
RMM:   2    -0.877869794884E+03   -0.14713E-03   -0.14806E-03  1970   0.583E-02    0.113E-02
RMM:   3    -0.877869805287E+03   -0.10403E-04   -0.15545E-04  1185   0.231E-02
  45 F= -.89892523E+03 E0= -.89892523E+03  d E =0.734083E-03  mag=    -0.0000
       N       E                     dE             d eps       ncg     rms          rms(c)
DAV:   1    -0.877869981779E+03   -0.18689E-03   -0.31198E-02  2432   0.195E-01    0.390E-02
RMM:   2    -0.877870038278E+03   -0.56499E-04   -0.81789E-04  1689   0.483E-02
  46 F= -.89892559E+03 E0= -.89892559E+03  d E =-.361260E-03  mag=     0.0000
       N       E                     dE             d eps       ncg     rms          rms(c)
DAV:   1    -0.877870301036E+03   -0.31926E-03   -0.16462E-01  2384   0.442E-01    0.794E-02
RMM:   2    -0.877870655441E+03   -0.35440E-03   -0.42397E-03  2607   0.902E-02    0.593E-02
RMM:   3    -0.877870665173E+03   -0.97326E-05   -0.30121E-04  1467   0.233E-02
  47 F= -.89892667E+03 E0= -.89892667E+03  d E =-.108028E-02  mag=     0.0000
       N       E                     dE             d eps       ncg     rms          rms(c)
DAV:   1    -0.877870852862E+03   -0.19742E-03   -0.22862E-01  2432   0.518E-01    0.985E-02
RMM:   2    -0.877871321007E+03   -0.46814E-03   -0.56975E-03  2696   0.108E-01    0.763E-02
RMM:   3    -0.877871340562E+03   -0.19555E-04   -0.50330E-04  1618   0.267E-02
  48 F= -.89892788E+03 E0= -.89892788E+03  d E =-.120750E-02  mag=    -0.0000
       N       E                     dE             d eps       ncg     rms          rms(c)
DAV:   1    -0.877870672860E+03    0.64815E-03   -0.10462E-01  2608   0.359E-01    0.561E-02
RMM:   2    -0.877870957947E+03   -0.28509E-03   -0.28791E-03  2417   0.814E-02    0.263E-02
RMM:   3    -0.877870987262E+03   -0.29314E-04   -0.23499E-04  1356   0.243E-02
  49 F= -.89892721E+03 E0= -.89892721E+03  d E =0.672398E-03  mag=     0.0000
       N       E                     dE             d eps       ncg     rms          rms(c)
DAV:   1    -0.877870979846E+03   -0.21899E-04   -0.12433E-04  1632   0.279E-02    0.197E-02
RMM:   2    -0.877870981688E+03   -0.18421E-05   -0.42445E-05  1204   0.155E-02
  50 F= -.89892719E+03 E0= -.89892719E+03  d E =0.141709E-04  mag=    -0.0000
       N       E                     dE             d eps       ncg     rms          rms(c)
DAV:   1    -0.877870676779E+03    0.30307E-03   -0.32259E-02  2400   0.194E-01    0.376E-02
RMM:   2    -0.877870728606E+03   -0.51827E-04   -0.71644E-04  1503   0.412E-02
  51 F= -.89892672E+03 E0= -.89892672E+03  d E =0.469156E-03  mag=     0.0000
       N       E                     dE             d eps       ncg     rms          rms(c)
DAV:   1    -0.877868708594E+03    0.19682E-02   -0.13267E+00  2352   0.125E+00    0.214E-01
RMM:   2    -0.877871649951E+03   -0.29414E-02   -0.35275E-02  2894   0.280E-01    0.134E-01
RMM:   3    -0.877871849392E+03   -0.19944E-03   -0.33827E-03  2671   0.574E-02    0.116E-01
RMM:   4    -0.877871825312E+03    0.24081E-04   -0.59892E-04  1632   0.396E-02
  52 F= -.89892907E+03 E0= -.89892907E+03  d E =-.234791E-02  mag=     0.0000
       N       E                     dE             d eps       ncg     rms          rms(c)
DAV:   1    -0.877871705112E+03    0.14428E-03   -0.77139E-02  2656   0.319E-01    0.626E-02
RMM:   2    -0.877871993648E+03   -0.28854E-03   -0.31372E-03  2616   0.942E-02    0.491E-02
RMM:   3    -0.877872007677E+03   -0.14029E-04   -0.24007E-04  1357   0.223E-02
  53 F= -.89892906E+03 E0= -.89892906E+03  d E =0.131051E-04  mag=     0.0000
       N       E                     dE             d eps       ncg     rms          rms(c)
DAV:   1    -0.877872127327E+03   -0.13368E-03   -0.22990E-02  2872   0.171E-01    0.466E-02
RMM:   2    -0.877872176412E+03   -0.49085E-04   -0.68177E-04  1584   0.409E-02
  54 F= -.89892943E+03 E0= -.89892943E+03  d E =-.372736E-03  mag=     0.0000
       N       E                     dE             d eps       ncg     rms          rms(c)
DAV:   1    -0.877872394014E+03   -0.26669E-03   -0.21399E-02  2560   0.177E-01    0.513E-02
RMM:   2    -0.877872449908E+03   -0.55895E-04   -0.73125E-04  1858   0.508E-02
  55 F= -.89892977E+03 E0= -.89892977E+03  d E =-.333720E-03  mag=     0.0000
       N       E                     dE             d eps       ncg     rms          rms(c)
DAV:   1    -0.877872561168E+03   -0.16715E-03   -0.25217E-01  2384   0.577E-01    0.100E-01
RMM:   2    -0.877873221080E+03   -0.65991E-03   -0.75185E-03  2837   0.135E-01    0.103E-01
RMM:   3    -0.877873274981E+03   -0.53902E-04   -0.99576E-04  1913   0.319E-02
  56 F= -.89893116E+03 E0= -.89893116E+03  d E =-.139079E-02  mag=     0.0000
       N       E                     dE             d eps       ncg     rms          rms(c)
DAV:   1    -0.877872849853E+03    0.37123E-03   -0.27852E-02  3168   0.199E-01    0.723E-02
RMM:   2    -0.877872930875E+03   -0.81022E-04   -0.82738E-04  1834   0.466E-02
  57 F= -.89893070E+03 E0= -.89893070E+03  d E =0.459041E-03  mag=     0.0000
       N       E                     dE             d eps       ncg     rms          rms(c)
DAV:   1    -0.877872606055E+03    0.24380E-03   -0.30378E-02  2560   0.215E-01    0.384E-02
RMM:   2    -0.877872706932E+03   -0.10088E-03   -0.10575E-03  2128   0.600E-02    0.275E-02
RMM:   3    -0.877872724915E+03   -0.17983E-04   -0.18130E-04  1420   0.240E-02
  58 F= -.89893026E+03 E0= -.89893026E+03  d E =0.437618E-03  mag=    -0.0000
       N       E                     dE             d eps       ncg     rms          rms(c)
DAV:   1    -0.877872862474E+03   -0.15554E-03   -0.18317E-02  2944   0.151E-01    0.348E-02
RMM:   2    -0.877872898103E+03   -0.35629E-04   -0.44568E-04  1544   0.386E-02
  59 F= -.89893050E+03 E0= -.89893050E+03  d E =-.240634E-03  mag=    -0.0000
       N       E                     dE             d eps       ncg     rms          rms(c)
DAV:   1    -0.877873289070E+03   -0.42660E-03   -0.17411E-01  2384   0.463E-01    0.750E-02
RMM:   2    -0.877873724232E+03   -0.43516E-03   -0.47938E-03  2604   0.972E-02    0.744E-02
RMM:   3    -0.877873759427E+03   -0.35195E-04   -0.61767E-04  1596   0.247E-02
  60 F= -.89893170E+03 E0= -.89893170E+03  d E =-.119863E-02  mag=    -0.0000
