       N       E                     dE             d eps       ncg     rms          rms(c)
DAV:   1    -0.892550769426E+03   -0.89255E+03   -0.49478E-04  1792   0.264E-02    0.229E-02
RMM:   2    -0.892550800875E+03   -0.31449E-04   -0.12092E-04  1249   0.185E-02
   1 F= -.91357064E+03 E0= -.91357064E+03  d E =-.913571E+03  mag=     2.0000
       N       E                     dE             d eps       ncg     rms          rms(c)
DAV:   1    -0.892550971451E+03   -0.20202E-03   -0.14270E-02  2640   0.834E-02    0.449E-02
RMM:   2    -0.892551003969E+03   -0.32518E-04   -0.46169E-04  1269   0.258E-02
   2 F= -.91357084E+03 E0= -.91357084E+03  d E =-.193613E-03  mag=     2.0000
