 vasp.5.3.5 31Mar14 (build May 27 2014 14:39:49) gamma-only                     
  
 executed on           LinuxIFORT date 2020.11.24  14:13:32
 running on   96 total cores
 distrk:  each k-point on   96 cores,    1 groups
 distr:  one band on NCORES_PER_BAND=   6 cores,   16 groups


--------------------------------------------------------------------------------------------------------


 INCAR:
 POTCAR:    PAW_PBE Ce 23Dec2003                  
 POTCAR:    PAW_PBE O 08Apr2002                   
 POTCAR:    PAW_PBE Pt 04Feb2005                  
 POTCAR:    PAW_PBE O 08Apr2002                   
 POTCAR:    PAW_PBE C 08Apr2002                   
 POTCAR:    PAW_PBE Ce 23Dec2003                  
   VRHFIN =Ce : [core= Kr 4d10]                                                 
   LEXCH  = PE                                                                  
   EATOM  =  1063.0861 eV,   78.1346 Ry                                         
                                                                                
   TITEL  = PAW_PBE Ce 23Dec2003                                                
   LULTRA =        F    use ultrasoft PP ?                                      
   IUNSCR =        1    unscreen: 0-lin 1-nonlin 2-no                           
   RPACOR =    1.800    partial core radius                                     
   POMASS =  140.115; ZVAL   =   12.000    mass and valenz                      
   RCORE  =    2.700    outmost cutoff radius                                   
   RWIGS  =    2.500; RWIGS  =    1.323    wigner-seitz radius (au A)           
   ENMAX  =  273.042; ENMIN  =  204.781 eV                                      
   RCLOC  =    1.810    cutoff for local pot                                    
   LCOR   =        T    correct aug charges                                     
   LPAW   =        T    paw PP                                                  
   EAUG   =  580.196                                                            
   DEXC   =    0.000                                                            
   RMAX   =    2.749    core radius for proj-oper                               
   RAUG   =    1.300    factor for augmentation sphere                          
   RDEP   =    2.810    radius for radial grids                                 
   RDEPT  =    2.162    core radius for aug-charge                              
                                                                                
   Atomic configuration                                                         
   14 entries                                                                   
     n  l   j            E        occ.                                          
     1  0  0.50    -40258.9816   2.0000                                         
     2  0  0.50     -6445.4884   2.0000                                         
     2  1  1.50     -5771.7470   6.0000                                         
     3  0  0.50     -1387.9739   2.0000                                         
     3  1  1.50     -1173.8158   6.0000                                         
     3  2  2.50      -869.9108  10.0000                                         
     4  0  0.50      -280.8706   2.0000                                         
     4  1  1.50      -210.9815   6.0000                                         
     4  2  2.50      -110.4558  10.0000                                         
     5  0  0.50       -40.5819   2.0000                                         
     6  0  0.50        -3.7444   2.0000                                         
     5  1  1.50       -23.2188   6.0000                                         
     5  2  2.50        -3.0598   1.0000                                         
     4  3  2.50        -5.3970   1.0000                                         
   Description                                                                  
     l       E           TYP  RCUT    TYP  RCUT                                 
     0    -40.5819164     23  1.500                                             
     0     -3.7443793     23  2.300                                             
     1    -23.2188445     23  2.000                                             
     1     40.8174780     23  2.300                                             
     2     -3.0597556     23  2.500                                             
     2     13.6058260     23  2.500                                             
     3     -5.3970469     23  2.700                                             
     3     -5.8505052     23  2.700                                             
  local pseudopotential read in
  partial core-charges read in
  partial kinetic energy density read in
  atomic valenz-charges read in
  non local Contribution for L=           0  read in
    real space projection operators read in
  non local Contribution for L=           0  read in
    real space projection operators read in
  non local Contribution for L=           1  read in
    real space projection operators read in
  non local Contribution for L=           1  read in
    real space projection operators read in
  non local Contribution for L=           2  read in
    real space projection operators read in
  non local Contribution for L=           2  read in
    real space projection operators read in
  non local Contribution for L=           3  read in
    real space projection operators read in
  non local Contribution for L=           3  read in
    real space projection operators read in
    PAW grid and wavefunctions read in
 
   number of l-projection  operators is LMAX  =           8
   number of lm-projection operators is LMMAX =          32
 
 POTCAR:    PAW_PBE O 08Apr2002                   
   VRHFIN =O: s2p4                                                              
   LEXCH  = PE                                                                  
   EATOM  =   432.3788 eV,   31.7789 Ry                                         
                                                                                
   TITEL  = PAW_PBE O 08Apr2002                                                 
   LULTRA =        F    use ultrasoft PP ?                                      
   IUNSCR =        1    unscreen: 0-lin 1-nonlin 2-no                           
   RPACOR =    1.200    partial core radius                                     
   POMASS =   16.000; ZVAL   =    6.000    mass and valenz                      
   RCORE  =    1.520    outmost cutoff radius                                   
   RWIGS  =    1.550; RWIGS  =    0.820    wigner-seitz radius (au A)           
   ENMAX  =  400.000; ENMIN  =  300.000 eV                                      
   ICORE  =        2    local potential                                         
   LCOR   =        T    correct aug charges                                     
   LPAW   =        T    paw PP                                                  
   EAUG   =  605.392                                                            
   DEXC   =    0.000                                                            
   RMAX   =    1.553    core radius for proj-oper                               
   RAUG   =    1.300    factor for augmentation sphere                          
   RDEP   =    1.550    radius for radial grids                                 
   RDEPT  =    1.329    core radius for aug-charge                              
                                                                                
   Atomic configuration                                                         
    4 entries                                                                   
     n  l   j            E        occ.                                          
     1  0  0.50      -514.6923   2.0000                                         
     2  0  0.50       -23.9615   2.0000                                         
     2  1  0.50        -9.0305   4.0000                                         
     3  2  1.50        -9.5241   0.0000                                         
   Description                                                                  
     l       E           TYP  RCUT    TYP  RCUT                                 
     0    -23.9615318     23  1.200                                             
     0     -9.5240782     23  1.200                                             
     1     -9.0304911     23  1.520                                             
     1      8.1634956     23  1.520                                             
     2     -9.5240782      7  1.500                                             
  local pseudopotential read in
  partial core-charges read in
  partial kinetic energy density read in
  kinetic energy density of atom read in
  atomic valenz-charges read in
  non local Contribution for L=           0  read in
    real space projection operators read in
  non local Contribution for L=           0  read in
    real space projection operators read in
  non local Contribution for L=           1  read in
    real space projection operators read in
  non local Contribution for L=           1  read in
    real space projection operators read in
    PAW grid and wavefunctions read in
 
   number of l-projection  operators is LMAX  =           4
   number of lm-projection operators is LMMAX =           8
 
 POTCAR:    PAW_PBE Pt 04Feb2005                  
   VRHFIN =Pt: s1d9                                                             
   LEXCH  = PE                                                                  
   EATOM  =   729.1176 eV,   53.5886 Ry                                         
                                                                                
   TITEL  = PAW_PBE Pt 04Feb2005                                                
   LULTRA =        F    use ultrasoft PP ?                                      
   IUNSCR =        1    unscreen: 0-lin 1-nonlin 2-no                           
   RPACOR =    2.330    partial core radius                                     
   POMASS =  195.080; ZVAL   =   10.000    mass and valenz                      
   RCORE  =    2.600    outmost cutoff radius                                   
   RWIGS  =    2.750; RWIGS  =    1.455    wigner-seitz radius (au A)           
   ENMAX  =  230.283; ENMIN  =  172.712 eV                                      
   ICORE  =        3    local potential                                         
   LCOR   =        T    correct aug charges                                     
   LPAW   =        T    paw PP                                                  
   EAUG   =  358.966                                                            
   DEXC   =    0.000                                                            
   RMAX   =    2.658    core radius for proj-oper                               
   RAUG   =    1.300    factor for augmentation sphere                          
   RDEP   =    2.761    radius for radial grids                                 
   RDEPT  =    2.203    core radius for aug-charge                              
                                                                                
   Atomic configuration                                                         
   16 entries                                                                   
     n  l   j            E        occ.                                          
     1  0  0.50    -78401.1885   2.0000                                         
     2  0  0.50    -13770.7750   2.0000                                         
     2  1  1.50    -11931.0468   6.0000                                         
     3  0  0.50     -3234.7234   2.0000                                         
     3  1  1.50     -2699.2216   6.0000                                         
     3  2  2.50     -2119.5714  10.0000                                         
     4  0  0.50      -695.1528   2.0000                                         
     4  1  1.50      -519.6034   6.0000                                         
     4  2  2.50      -306.6786  10.0000                                         
     4  3  3.50       -70.1041  14.0000                                         
     5  0  0.50      -101.7747   2.0000                                         
     5  1  1.50       -55.9873   6.0000                                         
     5  2  2.50        -6.1423   9.0000                                         
     6  0  0.50        -5.6573   1.0000                                         
     6  1  1.50        -6.8029   0.0000                                         
     5  3  2.50        -1.3606   0.0000                                         
   Description                                                                  
     l       E           TYP  RCUT    TYP  RCUT                                 
     2     -6.1423404     23  2.500                                             
     2     -7.5029230     23  2.500                                             
     0     -5.6573207     23  2.500                                             
     0      0.7416693     23  2.500                                             
     1     -2.7211652     23  2.600                                             
     1     20.4087390     23  2.600                                             
     3     -1.3605826     23  2.500                                             
  local pseudopotential read in
  partial core-charges read in
  partial kinetic energy density read in
  atomic valenz-charges read in
  non local Contribution for L=           2  read in
    real space projection operators read in
  non local Contribution for L=           2  read in
    real space projection operators read in
  non local Contribution for L=           0  read in
    real space projection operators read in
  non local Contribution for L=           0  read in
    real space projection operators read in
  non local Contribution for L=           1  read in
    real space projection operators read in
  non local Contribution for L=           1  read in
    real space projection operators read in
    PAW grid and wavefunctions read in
 
   number of l-projection  operators is LMAX  =           6
   number of lm-projection operators is LMMAX =          18
 
 POTCAR:    PAW_PBE O 08Apr2002                   
   VRHFIN =O: s2p4                                                              
   LEXCH  = PE                                                                  
   EATOM  =   432.3788 eV,   31.7789 Ry                                         
                                                                                
   TITEL  = PAW_PBE O 08Apr2002                                                 
   LULTRA =        F    use ultrasoft PP ?                                      
   IUNSCR =        1    unscreen: 0-lin 1-nonlin 2-no                           
   RPACOR =    1.200    partial core radius                                     
   POMASS =   16.000; ZVAL   =    6.000    mass and valenz                      
   RCORE  =    1.520    outmost cutoff radius                                   
   RWIGS  =    1.550; RWIGS  =    0.820    wigner-seitz radius (au A)           
   ENMAX  =  400.000; ENMIN  =  300.000 eV                                      
   ICORE  =        2    local potential                                         
   LCOR   =        T    correct aug charges                                     
   LPAW   =        T    paw PP                                                  
   EAUG   =  605.392                                                            
   DEXC   =    0.000                                                            
   RMAX   =    1.553    core radius for proj-oper                               
   RAUG   =    1.300    factor for augmentation sphere                          
   RDEP   =    1.550    radius for radial grids                                 
   RDEPT  =    1.329    core radius for aug-charge                              
                                                                                
   Atomic configuration                                                         
    4 entries                                                                   
     n  l   j            E        occ.                                          
     1  0  0.50      -514.6923   2.0000                                         
     2  0  0.50       -23.9615   2.0000                                         
     2  1  0.50        -9.0305   4.0000                                         
     3  2  1.50        -9.5241   0.0000                                         
   Description                                                                  
     l       E           TYP  RCUT    TYP  RCUT                                 
     0    -23.9615318     23  1.200                                             
     0     -9.5240782     23  1.200                                             
     1     -9.0304911     23  1.520                                             
     1      8.1634956     23  1.520                                             
     2     -9.5240782      7  1.500                                             
  local pseudopotential read in
  partial core-charges read in
  partial kinetic energy density read in
  kinetic energy density of atom read in
  atomic valenz-charges read in
  non local Contribution for L=           0  read in
    real space projection operators read in
  non local Contribution for L=           0  read in
    real space projection operators read in
  non local Contribution for L=           1  read in
    real space projection operators read in
  non local Contribution for L=           1  read in
    real space projection operators read in
    PAW grid and wavefunctions read in
 
   number of l-projection  operators is LMAX  =           4
   number of lm-projection operators is LMMAX =           8
 
 POTCAR:    PAW_PBE C 08Apr2002                   
   VRHFIN =C: s2p2                                                              
   LEXCH  = PE                                                                  
   EATOM  =   147.1560 eV,   10.8157 Ry                                         
                                                                                
   TITEL  = PAW_PBE C 08Apr2002                                                 
   LULTRA =        F    use ultrasoft PP ?                                      
   IUNSCR =        1    unscreen: 0-lin 1-nonlin 2-no                           
   RPACOR =    1.200    partial core radius                                     
   POMASS =   12.011; ZVAL   =    4.000    mass and valenz                      
   RCORE  =    1.500    outmost cutoff radius                                   
   RWIGS  =    1.630; RWIGS  =    0.863    wigner-seitz radius (au A)           
   ENMAX  =  400.000; ENMIN  =  300.000 eV                                      
   ICORE  =        2    local potential                                         
   LCOR   =        T    correct aug charges                                     
   LPAW   =        T    paw PP                                                  
   EAUG   =  644.873                                                            
   DEXC   =    0.000                                                            
   RMAX   =    1.529    core radius for proj-oper                               
   RAUG   =    1.300    factor for augmentation sphere                          
   RDEP   =    1.501    radius for radial grids                                 
   RDEPT  =    1.300    core radius for aug-charge                              
                                                                                
   Atomic configuration                                                         
    4 entries                                                                   
     n  l   j            E        occ.                                          
     1  0  0.50      -273.3789   2.0000                                         
     2  0  0.50       -13.7508   2.0000                                         
     2  1  0.50        -5.2854   2.0000                                         
     3  2  1.50        -5.4423   0.0000                                         
   Description                                                                  
     l       E           TYP  RCUT    TYP  RCUT                                 
     0    -13.7508458     23  1.200                                             
     0     -8.2022199     23  1.200                                             
     1     -5.2854383     23  1.500                                             
     1     34.0145650     23  1.500                                             
     2     -5.4423304      7  1.500                                             
  local pseudopotential read in
  partial core-charges read in
  partial kinetic energy density read in
  atomic valenz-charges read in
  non local Contribution for L=           0  read in
    real space projection operators read in
  non local Contribution for L=           0  read in
    real space projection operators read in
  non local Contribution for L=           1  read in
    real space projection operators read in
  non local Contribution for L=           1  read in
    real space projection operators read in
    PAW grid and wavefunctions read in
 
   number of l-projection  operators is LMAX  =           4
   number of lm-projection operators is LMMAX =           8
 
 Optimization of the real space projectors (new method)

 maximal supplied QI-value         = 13.98
 optimisation between [QCUT,QGAM] = [ 10.21, 20.42] = [ 29.18,116.73] Ry 
 Optimized for a Real-space Cutoff    1.65 Angstroem

   l    n(q)    QCUT    max X(q) W(low)/X(q) W(high)/X(q)  e(spline) 
   0     10    10.208     8.553    0.18E-04    0.75E-05    0.12E-06
   0     10    10.208     8.106    0.26E-04    0.16E-04    0.24E-06
   1     10    10.208     4.160    0.93E-05    0.96E-06    0.75E-07
   1     10    10.208     3.597    0.23E-04    0.26E-04    0.15E-06
   2      9    10.208     8.183    0.11E-03    0.28E-03    0.51E-06
   2      9    10.208     6.077    0.74E-04    0.19E-03    0.37E-06
   3      9    10.208   116.013    0.19E-03    0.98E-05    0.18E-06
   3      9    10.208   108.937    0.19E-03    0.10E-04    0.18E-06
 Optimization of the real space projectors (new method)

 maximal supplied QI-value         = 24.76
 optimisation between [QCUT,QGAM] = [ 10.15, 20.30] = [ 28.85,115.39] Ry 
 Optimized for a Real-space Cutoff    1.51 Angstroem

   l    n(q)    QCUT    max X(q) W(low)/X(q) W(high)/X(q)  e(spline) 
   0      9    10.150    20.381    0.17E-03    0.18E-03    0.41E-06
   0      9    10.150    15.268    0.18E-03    0.20E-03    0.43E-06
   1      9    10.150     5.964    0.16E-03    0.20E-03    0.36E-06
   1      9    10.150     5.382    0.13E-03    0.16E-03    0.33E-06
 Optimization of the real space projectors (new method)

 maximal supplied QI-value         = 14.36
 optimisation between [QCUT,QGAM] = [ 10.20, 20.39] = [ 29.12,116.47] Ry 
 Optimized for a Real-space Cutoff    1.55 Angstroem

   l    n(q)    QCUT    max X(q) W(low)/X(q) W(high)/X(q)  e(spline) 
   2      9    10.197    66.195    0.14E-03    0.26E-03    0.16E-06
   2      9    10.197    64.643    0.14E-03    0.26E-03    0.16E-06
   0      9    10.197    95.520    0.52E-04    0.23E-04    0.61E-07
   0      9    10.197    63.403    0.50E-04    0.22E-04    0.58E-07
   1      9    10.197    19.961    0.18E-03    0.80E-04    0.90E-07
   1      9    10.197    13.289    0.15E-03    0.68E-04    0.78E-07
 Optimization of the real space projectors (new method)

 maximal supplied QI-value         = 24.76
 optimisation between [QCUT,QGAM] = [ 10.15, 20.30] = [ 28.85,115.39] Ry 
 Optimized for a Real-space Cutoff    1.51 Angstroem

   l    n(q)    QCUT    max X(q) W(low)/X(q) W(high)/X(q)  e(spline) 
   0      9    10.150    20.381    0.17E-03    0.18E-03    0.41E-06
   0      9    10.150    15.268    0.18E-03    0.20E-03    0.43E-06
   1      9    10.150     5.964    0.16E-03    0.20E-03    0.36E-06
   1      9    10.150     5.382    0.13E-03    0.16E-03    0.33E-06
 Optimization of the real space projectors (new method)

 maximal supplied QI-value         = 25.13
 optimisation between [QCUT,QGAM] = [ 10.05, 20.36] = [ 28.30,116.06] Ry 
 Optimized for a Real-space Cutoff    1.51 Angstroem

   l    n(q)    QCUT    max X(q) W(low)/X(q) W(high)/X(q)  e(spline) 
   0      9    10.053   115.676    0.19E-03    0.21E-03    0.38E-06
   0      9    10.053    87.132    0.19E-03    0.21E-03    0.38E-06
   1      9    10.053     4.429    0.87E-04    0.11E-03    0.39E-06
   1      9    10.053     2.733    0.59E-04    0.62E-04    0.43E-06
  PAW_PBE Ce 23Dec2003                  :
 energy of atom  1       EATOM=-1063.0861
 kinetic energy error for atom=    0.0451 (will be added to EATOM!!)
  PAW_PBE O 08Apr2002                   :
 energy of atom  2       EATOM= -432.3788
 kinetic energy error for atom=    0.1156 (will be added to EATOM!!)
  PAW_PBE Pt 04Feb2005                  :
 energy of atom  3       EATOM= -729.1176
 kinetic energy error for atom=    0.0056 (will be added to EATOM!!)
  PAW_PBE O 08Apr2002                   :
 energy of atom  4       EATOM= -432.3788
 kinetic energy error for atom=    0.1156 (will be added to EATOM!!)
  PAW_PBE C 08Apr2002                   :
 energy of atom  5       EATOM= -147.1560
 kinetic energy error for atom=    0.0288 (will be added to EATOM!!)
 
 
 POSCAR: CeO2-110-l3-p23:                        
  positions in direct lattice
  velocities in cartesian coordinates
 exchange correlation table for  LEXCH =        8
   RHO(1)=    0.500       N(1)  =     2000
   RHO(2)=  100.500       N(2)  =     4000

 VTST: version 3.1, (03/28/14)

 CHAIN: initializing optimizer
 
 OPT: Using VASP Conjugate-Gradient optimizer
 CHAIN: Read ICHAIN            0
 
 POSCAR: CeO2-110-l3-p23:                        
  positions in direct lattice
  velocities in cartesian coordinates
 


--------------------------------------------------------------------------------------------------------


 ion  position               nearest neighbor table
   1  0.771  0.167  0.000-  37 2.38  41 2.38  40 2.38  45 2.38  53 2.38  55 2.38
   2  0.771  0.500  0.000-  37 2.38  39 2.38  41 2.38  47 2.38  59 2.38  60 2.38
   3  0.271  0.167  0.000-  42 2.38  46 2.38  44 2.38  38 2.38  51 2.38  52 2.38
   4  0.771  0.833  0.000-  39 2.38  47 2.38  45 2.38  40 2.38  50 2.38  54 2.38
   5  0.271  0.500  0.000-  42 2.38  43 2.38  46 2.38  48 2.38  57 2.38  58 2.38
   6  0.271  0.833  0.000-  43 2.38  48 2.38  44 2.38  38 2.38  49 2.38  56 2.38
   7  0.521  0.000  0.079-  61 2.37  50 2.38  51 2.38  55 2.38  49 2.38  45 2.38  44 2.38  67 2.38

   8  0.521  0.667  0.079-  62 2.37  63 2.37  49 2.38  50 2.38  57 2.38  60 2.38  39 2.38  43 2.38

   9  0.021  0.000  0.079-  66 2.36  53 2.38  54 2.38  56 2.38  52 2.38  40 2.38  38 2.38  65 2.38

  10  0.521  0.333  0.079-  71 2.37  55 2.38  51 2.38  60 2.38  57 2.38  46 2.38  37 2.38  69 2.39

  11  0.021  0.333  0.079-  70 2.37  53 2.38  52 2.38  59 2.38  58 2.38  42 2.38  41 2.38  72 2.39

  12  0.021  0.667  0.079-  68 2.37  64 2.37  54 2.38  56 2.38  58 2.38  59 2.38  47 2.38  48 2.38

  13  0.771  0.168  0.158-  80 2.35  73 2.35  71 2.37  70 2.37  61 2.38  66 2.38  53 2.39  55 2.39

  14  0.771  0.835  0.157-  74 2.36  84 2.36  66 2.37  54 2.37  61 2.37  50 2.37  64 2.38  63 2.38

  15  0.271  0.167  0.158-  72 2.35  69 2.35  67 2.36  65 2.36  51 2.40  52 2.40  83 2.41  79 2.41

  16  0.771  0.499  0.157-  70 2.36  71 2.36  76 2.37  78 2.37  59 2.38  60 2.38  63 2.38  64 2.38

  17  0.271  0.499  0.157-  82 2.35  81 2.35  58 2.38  57 2.38  62 2.38  68 2.38  72 2.38  69 2.38

  18  0.271  0.833  0.157-  75 2.34  77 2.35  49 2.37  56 2.37  68 2.38  62 2.38  65 2.39  67 2.39

  19  0.019  0.666  0.233-  87 2.30  64 2.33  68 2.35  76 2.37  92 2.38  84 2.39  77 2.40  82 2.41

  20  0.523  0.666  0.233-  93 2.29  63 2.32  62 2.34  78 2.37  90 2.38  74 2.39  75 2.41  81 2.41

  21  0.021  0.333  0.236-  80 2.36  94 2.36  76 2.37  82 2.37  72 2.37  70 2.38  83 2.38  95 2.44

  22  0.022  0.001  0.234-  65 2.34  66 2.35  86 2.36  84 2.36  83 2.37  80 2.37  77 2.38  96 2.44

  23  0.521  0.001  0.234-  67 2.34  61 2.35  89 2.36  74 2.36  79 2.37  73 2.38  75 2.38  91 2.44

  24  0.521  0.333  0.236-  73 2.36  78 2.36  69 2.37  81 2.37  85 2.37  71 2.38  79 2.38  88 2.44

  25  0.771  0.499  0.316- 105 2.32 106 2.32  94 2.38  85 2.38  92 2.40  90 2.40  78 2.42  76 2.42

  26  0.771  0.168  0.317-  85 2.34  94 2.34 103 2.35 104 2.36  86 2.36  89 2.37  73 2.46  80 2.46

  27  0.271  0.502  0.313-  95 2.32  88 2.32  81 2.37  82 2.37  87 2.40  93 2.40 109 2.52 108 3.07

  28  0.271  0.828  0.313-  91 2.33  96 2.33  77 2.37  93 2.37  75 2.37  87 2.38  99 2.55  98 2.56
                           108 3.04
  29  0.271  0.165  0.319- 100 2.28 101 2.28  79 2.42  83 2.42  88 2.44  95 2.44  96 2.47  91 2.47

  30  0.771  0.838  0.314-  92 2.36  90 2.36 102 2.36  97 2.36  89 2.37  86 2.38  74 2.40  84 2.40

  31  0.017  0.005  0.386- 103 2.20 101 2.23  96 2.24  86 2.26 102 2.28
  32  0.525  0.005  0.386- 104 2.20 100 2.23  91 2.24  89 2.26  97 2.28
  33  0.007  0.668  0.385- 105 2.22  92 2.24 107 2.28  98 2.28 102 2.31  87 2.38 108 2.96
  34  0.534  0.668  0.385- 106 2.21  90 2.24  99 2.28 109 2.29  97 2.31  93 2.37 108 2.96
  35  0.019  0.331  0.390-  95 2.31  94 2.33 103 2.40 105 2.41 101 2.45
  36  0.524  0.331  0.391-  88 2.32  85 2.33 104 2.41 106 2.41 100 2.46
  37  0.646  0.333  0.000-   1 2.38   2 2.38  10 2.38
  38  0.146  0.000  0.000-   3 2.38   6 2.38   9 2.38
  39  0.646  0.667  0.000-   4 2.38   2 2.38   8 2.38
  40  0.896  0.000  0.000-   1 2.38   4 2.38   9 2.38
  41  0.896  0.333  0.000-   1 2.38   2 2.38  11 2.38
  42  0.146  0.333  0.000-   3 2.38   5 2.38  11 2.38
  43  0.396  0.667  0.000-   6 2.38   5 2.38   8 2.38
  44  0.396  0.000  0.000-   3 2.38   6 2.38   7 2.38
  45  0.646  0.000  0.000-   1 2.38   4 2.38   7 2.38
  46  0.396  0.333  0.000-   3 2.38   5 2.38  10 2.38
  47  0.896  0.667  0.000-   4 2.38   2 2.38  12 2.38
  48  0.146  0.667  0.000-   6 2.38   5 2.38  12 2.38
  49  0.396  0.833  0.079-  18 2.37   8 2.38   7 2.38   6 2.38
  50  0.646  0.833  0.079-  14 2.37   8 2.38   7 2.38   4 2.38
  51  0.396  0.167  0.079-  10 2.38   7 2.38   3 2.38  15 2.40
  52  0.146  0.167  0.079-  11 2.38   9 2.38   3 2.38  15 2.40
  53  0.896  0.167  0.079-  11 2.38   9 2.38   1 2.38  13 2.39
  54  0.896  0.833  0.079-  14 2.37  12 2.38   9 2.38   4 2.38
  55  0.646  0.167  0.079-  10 2.38   7 2.38   1 2.38  13 2.39
  56  0.146  0.833  0.079-  18 2.37  12 2.38   9 2.38   6 2.38
  57  0.396  0.500  0.079-   8 2.38  10 2.38   5 2.38  17 2.38
  58  0.146  0.500  0.079-  11 2.38  12 2.38   5 2.38  17 2.38
  59  0.896  0.500  0.079-  11 2.38  12 2.38   2 2.38  16 2.38
  60  0.646  0.500  0.079-   8 2.38  10 2.38   2 2.38  16 2.38
  61  0.646  0.001  0.157-  23 2.35   7 2.37  14 2.37  13 2.38
  62  0.396  0.666  0.156-  20 2.34   8 2.37  18 2.38  17 2.38
  63  0.647  0.667  0.157-  20 2.32   8 2.37  16 2.38  14 2.38
  64  0.895  0.667  0.157-  19 2.33  12 2.37  14 2.38  16 2.38
  65  0.147  0.002  0.157-  22 2.34  15 2.36   9 2.38  18 2.39
  66  0.896  0.001  0.157-  22 2.35   9 2.36  14 2.37  13 2.38
  67  0.396  0.002  0.157-  23 2.34  15 2.36   7 2.38  18 2.39
  68  0.147  0.666  0.157-  19 2.35  12 2.37  18 2.38  17 2.38
  69  0.396  0.331  0.158-  15 2.35  24 2.37  17 2.38  10 2.39
  70  0.897  0.334  0.157-  16 2.36  13 2.37  11 2.37  21 2.38
  71  0.646  0.334  0.157-  16 2.36  13 2.37  10 2.37  24 2.38
  72  0.146  0.331  0.158-  15 2.35  21 2.37  17 2.38  11 2.39
  73  0.646  0.168  0.235-  13 2.35  24 2.36  23 2.38  26 2.46
  74  0.646  0.836  0.234-  14 2.36  23 2.36  20 2.39  30 2.40
  75  0.395  0.834  0.234-  18 2.34  28 2.37  23 2.38  20 2.41
  76  0.897  0.499  0.235-  21 2.37  16 2.37  19 2.37  25 2.42
  77  0.147  0.834  0.234-  18 2.35  28 2.37  22 2.38  19 2.40
  78  0.645  0.498  0.235-  24 2.36  16 2.37  20 2.37  25 2.42
  79  0.396  0.166  0.239-  23 2.37  24 2.38  15 2.41  29 2.42
  80  0.897  0.167  0.235-  13 2.35  21 2.36  22 2.37  26 2.46
  81  0.395  0.498  0.235-  17 2.35  27 2.37  24 2.37  20 2.41
  82  0.147  0.498  0.235-  17 2.35  21 2.37  27 2.37  19 2.41
  83  0.147  0.166  0.239-  22 2.37  21 2.38  15 2.41  29 2.42
  84  0.897  0.836  0.234-  14 2.36  22 2.36  19 2.39  30 2.40
  85  0.647  0.331  0.314-  36 2.33  26 2.34  24 2.37  25 2.38
  86  0.897  0.003  0.311-  31 2.26  22 2.36  26 2.36  30 2.38
  87  0.140  0.666  0.309-  19 2.30  33 2.38  28 2.38  27 2.40
  88  0.395  0.340  0.317-  36 2.32  27 2.32  24 2.44  29 2.44
  89  0.646  0.003  0.312-  32 2.26  23 2.36  26 2.37  30 2.37
  90  0.651  0.670  0.310-  34 2.24  30 2.36  20 2.38  25 2.40
  91  0.397  0.989  0.316-  32 2.24  28 2.33  23 2.44  29 2.47
  92  0.892  0.670  0.311-  33 2.24  30 2.36  19 2.38  25 2.40
  93  0.403  0.667  0.309-  20 2.29  28 2.37  34 2.37  27 2.40
  94  0.895  0.331  0.313-  35 2.33  26 2.34  21 2.36  25 2.38
  95  0.148  0.340  0.317-  35 2.31  27 2.32  21 2.44  29 2.44
  96  0.146  0.989  0.315-  31 2.24  28 2.33  22 2.44  29 2.47
  97  0.637  0.841  0.389-  32 2.28  34 2.31  30 2.36
  98  0.152  0.805  0.401- 108 2.07  33 2.28  28 2.56
  99  0.390  0.804  0.401- 108 2.07  34 2.28  28 2.55
 100  0.400  0.156  0.391-  32 2.23  29 2.28  36 2.46
 101  0.142  0.156  0.391-  31 2.23  29 2.28  35 2.45
 102  0.905  0.841  0.389-  31 2.28  33 2.31  30 2.36
 103  0.900  0.158  0.393-  31 2.20  26 2.35  35 2.40
 104  0.643  0.158  0.393-  32 2.20  26 2.36  36 2.41
 105  0.901  0.506  0.390-  33 2.22  25 2.32  35 2.41
 106  0.640  0.507  0.390-  34 2.21  25 2.32  36 2.41
 107  0.151  0.532  0.403- 108 2.06  33 2.28
 108  0.271  0.668  0.410- 107 2.06 109 2.06  99 2.07  98 2.07  33 2.96  34 2.96  28 3.04  27 3.07

 109  0.388  0.531  0.400- 108 2.06  34 2.29  27 2.52
 110  0.439  0.526  0.522- 112 1.18
 111  0.281  0.651  0.548- 112 1.18
 112  0.359  0.589  0.534- 111 1.18 110 1.18
 

IMPORTANT INFORMATION: All symmetrisations will be switched off!
NOSYMM: (Re-)initialisation of all symmetry stuff for point group C_1.

 
 
 KPOINTS: CeO2-111-3x3-9layers         ! Comment  

Automatic generation of k-mesh.
Space group operators:
 irot       det(A)        alpha          n_x          n_y          n_z        tau_x        tau_y        tau_z
    1     1.000000     0.000000     1.000000     0.000000     0.000000     0.000000     0.000000     0.000000
 
 Subroutine IBZKPT returns following result:
 ===========================================
 
 Found      1 irreducible k-points:
 
 Following reciprocal coordinates:
            Coordinates               Weight
  0.000000  0.000000  0.000000      1.000000
 
 Following cartesian coordinates:
            Coordinates               Weight
  0.000000  0.000000  0.000000      1.000000
 


--------------------------------------------------------------------------------------------------------




 Dimension of arrays:
   k-points           NKPTS =      1   k-points in BZ     NKDIM =      1   number of bands    NBANDS=    592
   number of dos      NEDOS =    301   number of ions     NIONS =    112
   non local maximal  LDIM  =      8   non local SUM 2l+1 LMDIM =     32
   total plane-waves  NPLWV = 933120
   max r-space proj   IRMAX =   5592   max aug-charges    IRDMAX= 143303
   dimension x,y,z NGX =    72 NGY =   80 NGZ =  162
   dimension x,y,z NGXF=   144 NGYF=  160 NGZF=  324
   support grid    NGXF=   288 NGYF=  320 NGZF=  648
   ions per type =              36  71   1   3   1
 NGX,Y,Z   is equivalent  to a cutoff of  10.90, 11.42, 10.90 a.u.
 NGXF,Y,Z  is equivalent  to a cutoff of  21.80, 22.84, 21.80 a.u.


 I would recommend the setting:
   dimension x,y,z NGX =    72 NGY =   76 NGZ =  161
 SYSTEM =  unknown system                          
 POSCAR =  CeO2-110-l3-p23:                        

 Startparameter for this run:
   NWRITE =      2    write-flag & timer
   PREC   = accura    normal or accurate (medium, high low for compatibility)
   ISTART =      1    job   : 0-new  1-cont  2-samecut
   ICHARG =      0    charge: 1-file 2-atom 10-const
   ISPIN  =      2    spin polarized calculation?
   LNONCOLLINEAR =      F non collinear calculations
   LSORBIT =      F    spin-orbit coupling
   INIWAV =      1    electr: 0-lowe 1-rand  2-diag
   LASPH  =      T    aspherical Exc in radial PAW
   METAGGA=      F    non-selfconsistent MetaGGA calc.

 Electronic Relaxation 1
   ENCUT  =  400.0 eV  29.40 Ry    5.42 a.u.  17.91 18.99 40.29*2*pi/ulx,y,z
   ENINI  =  400.0     initial cutoff
   ENAUG  =  644.9 eV  augmentation charge cutoff
   NELM   =    100;   NELMIN=  2; NELMDL=  0     # of ELM steps 
   EDIFF  = 0.1E-03   stopping-criterion for ELM
   LREAL  =      T    real-space projection
   NLSPLINE    = F    spline interpolate recip. space projectors
   LCOMPAT=      F    compatible to vasp.4.4
   GGA_COMPAT  = T    GGA compatible to vasp.4.4-vasp.4.6
   LMAXPAW     = -100 max onsite density
   LMAXMIX     =    6 max onsite mixed and CHGCAR
   VOSKOWN=      0    Vosko Wilk Nusair interpolation
   ROPT   =   -0.00025  -0.00025  -0.00025  -0.00025
   ROPT   =   -0.00025
 Ionic relaxation
   EDIFFG = -.5E-01   stopping-criterion for IOM
   NSW    =     40    number of steps for IOM
   NBLOCK =      1;   KBLOCK =     40    inner block; outer block 
   IBRION =      2    ionic relax: 0-MD 1-quasi-New 2-CG
   NFREE  =      1    steps in history (QN), initial steepest desc. (CG)
   ISIF   =      2    stress and relaxation
   IWAVPR =     11    prediction:  0-non 1-charg 2-wave 3-comb
   ISYM   =      0    0-nonsym 1-usesym 2-fastsym
   LCORR  =      T    Harris-Foulkes like correction to forces

   POTIM  = 0.1000    time-step for ionic-motion
   TEIN   =    0.0    initial temperature
   TEBEG  =    0.0;   TEEND  =   0.0 temperature during run
   SMASS  =  -3.00    Nose mass-parameter (am)
   estimated Nose-frequenzy (Omega)   =  0.10E-29 period in steps =****** mass=  -0.276E-26a.u.
   SCALEE = 1.0000    scale energy and forces
   NPACO  =    256;   APACO  = 16.0  distance and # of slots for P.C.
   PSTRESS=    0.0 pullay stress

  Mass of Ions in am
   POMASS = 140.12 16.00195.08 16.00 12.01
  Ionic Valenz
   ZVAL   =  12.00  6.00 10.00  6.00  4.00
  Atomic Wigner-Seitz radii
   RWIGS  =  -1.00 -1.00 -1.00 -1.00 -1.00
  virtual crystal weights 
   VCA    =   1.00  1.00  1.00  1.00  1.00
   NELECT =     890.0000    total number of electrons
   NUPDOWN=      -1.0000    fix difference up-down

 DOS related values:
   EMIN   =  10.00;   EMAX   =-10.00  energy-range for DOS
   EFERMI =   0.00
   ISMEAR =     0;   SIGMA  =   0.05  broadening in eV -4-tet -1-fermi 0-gaus

 Electronic relaxation 2 (details)
   IALGO  =     68    algorithm
   LDIAG  =      T    sub-space diagonalisation (order eigenvalues)
   LSUBROT=      F    optimize rotation matrix (better conditioning)
   TURBO    =      0    0=normal 1=particle mesh
   IRESTART =      0    0=no restart 2=restart with 2 vectors
   NREBOOT  =      0    no. of reboots
   NMIN     =      0    reboot dimension
   EREF     =   0.00    reference energy to select bands
   IMIX   =      4    mixing-type and parameters
     AMIX     =   0.20;   BMIX     =  0.00
     AMIX_MAG =   0.80;   BMIX_MAG =  0.00
     AMIN     =   0.10
     WC   =   100.;   INIMIX=   1;  MIXPRE=   1;  MAXMIX= -45

 Intra band minimization:
   WEIMIN = 0.0010     energy-eigenvalue tresh-hold
   EBREAK =  0.42E-07  absolut break condition
   DEPER  =   0.30     relativ break condition  

   TIME   =   0.40     timestep for ELM

  volume/ion in A,a.u.               =      28.21       190.35
  Fermi-wavevector in a.u.,A,eV,Ry     =   1.073205  2.028063 15.670766  1.151769
  Thomas-Fermi vector in A             =   2.208998
 
 Write flags
   LWAVE  =      T    write WAVECAR
   LCHARG =      T    write CHGCAR
   LVTOT  =      F    write LOCPOT, total local potential
   LVHAR  =      F    write LOCPOT, Hartree potential only
   LELF   =      F    write electronic localiz. function (ELF)
   LORBIT =     11    0 simple, 1 ext, 2 COOP (PROOUT)


 Dipole corrections
   LMONO  =      F    monopole corrections only (constant potential shift)
   LDIPOL =      T    correct potential (dipole corrections)
   IDIPOL =      3    1-x, 2-y, 3-z, 4-all directions 
   EPSILON=  1.0000000 bulk dielectric constant

 LDA+U is selected, type is set to LDAUTYPE =  2
   angular momentum for each species LDAUL =     3   -1   -1   -1   -1
   U (eV)           for each species LDAUU =   4.5  0.0  0.0  0.0  0.0
   J (eV)           for each species LDAUJ =   0.0  0.0  0.0  0.0  0.0
 Exchange correlation treatment:
   GGA     =    --    GGA type
   LEXCH   =     8    internal setting for exchange type
   VOSKOWN=      0    Vosko Wilk Nusair interpolation
   LHFCALC =     F    Hartree Fock is set to
   LHFONE  =     F    Hartree Fock one center treatment
   AEXX    =    0.0000 exact exchange contribution

 Linear response parameters
   LEPSILON=     F    determine dielectric tensor
   LRPA    =     F    only Hartree local field effects (RPA)
   LNABLA  =     F    use nabla operator in PAW spheres
   LVEL    =     F    velocity operator in full k-point grid
   LINTERFAST=   F  fast interpolation
   KINTER  =     0    interpolate to denser k-point grid
   CSHIFT  =0.1000    complex shift for real part using Kramers Kronig
   OMEGAMAX=  -1.0    maximum frequency
   DEG_THRESHOLD= 0.2000000E-02 threshold for treating states as degnerate
   RTIME   =    0.100 relaxation time in fs

 Orbital magnetization related:
   ORBITALMAG=     F  switch on orbital magnetization
   LCHIMAG   =     F  perturbation theory with respect to B field
   DQ        =  0.001000  dq finite difference perturbation B field



--------------------------------------------------------------------------------------------------------


 conjugate gradient relaxation of ions
   using selective dynamics as specified on POSCAR
 charge density and potential will be updated during run
 spin polarized calculation
 RMM-DIIS sequential band-by-band and
  variant of blocked Davidson during initial phase
 perform sub-space diagonalisation
    before iterative eigenvector-optimisation
 modified Broyden-mixing scheme, WC =      100.0
 initial mixing is a Kerker type mixing with AMIX =  0.2000 and BMIX =      0.0010
 Hartree-type preconditioning will be used
 using additional bands          147
 real space projection scheme for non local part
 use partial core corrections
 calculate Harris-corrections to forces 
   (improved forces if not selfconsistent)
 use gradient corrections 
 use of overlap-Matrix (Vanderbilt PP)
 Gauss-broadening in eV      SIGMA  =   0.05


--------------------------------------------------------------------------------------------------------


  energy-cutoff  :      400.00
  volume of cell :     3159.12
      direct lattice vectors                 reciprocal lattice vectors
    10.980000000  0.000000000  0.000000000     0.091074681  0.000000000  0.000000000
     0.000000000 11.646048686  0.000000000     0.000000000  0.085866033  0.000000000
     0.000000000  0.000000000 24.705040572     0.000000000  0.000000000  0.040477570

  length of vectors
    10.980000000 11.646048686 24.705040572     0.091074681  0.085866033  0.040477570


 
 old parameters found on file WAVECAR:
  energy-cutoff  :      400.00
  volume of cell :     3159.12
      direct lattice vectors                 reciprocal lattice vectors
    10.980000000  0.000000000  0.000000000     0.091074681  0.000000000  0.000000000
     0.000000000 11.646048686  0.000000000     0.000000000  0.085866033  0.000000000
     0.000000000  0.000000000 24.705040572     0.000000000  0.000000000  0.040477570

  length of vectors

 
 k-points in units of 2pi/SCALE and weight: CeO2-111-3x3-9layers         ! Comment  
   0.00000000  0.00000000  0.00000000       1.000
 
 k-points in reciprocal lattice and weights: CeO2-111-3x3-9layers         ! Comment  
   0.00000000  0.00000000  0.00000000       1.000
 
 position of ions in fractional coordinates (direct lattice) 
   0.77120274  0.16666677  0.00000000
   0.77120274  0.50000010  0.00000000
   0.27120274  0.16666677  0.00000000
   0.77120274  0.83333343  0.00000000
   0.27120274  0.50000010  0.00000000
   0.27120274  0.83333343  0.00000000
   0.52120274  0.00000010  0.07856729
   0.52120274  0.66666677  0.07856729
   0.02120274  0.00000010  0.07856729
   0.52120274  0.33333343  0.07856729
   0.02120274  0.33333343  0.07856729
   0.02120274  0.66666677  0.07856729
   0.77121402  0.16763768  0.15754081
   0.77127944  0.83457221  0.15691336
   0.27124813  0.16716211  0.15820717
   0.77124663  0.49855355  0.15742922
   0.27119576  0.49866675  0.15717076
   0.27120717  0.83330186  0.15682294
   0.01934392  0.66631057  0.23283580
   0.52313370  0.66648937  0.23266279
   0.02114773  0.33266714  0.23576328
   0.02155359  0.00074706  0.23374872
   0.52089063  0.00075840  0.23374961
   0.52135889  0.33261206  0.23581320
   0.77121030  0.49865837  0.31584593
   0.77134266  0.16799820  0.31694624
   0.27145671  0.50195002  0.31322252
   0.27114889  0.82780515  0.31253673
   0.27129872  0.16543717  0.31935676
   0.77116570  0.83763092  0.31404171
   0.01734259  0.00546294  0.38582032
   0.52516148  0.00545222  0.38585363
   0.00735094  0.66815500  0.38520947
   0.53430867  0.66781241  0.38464995
   0.01854776  0.33133941  0.39048076
   0.52391648  0.33117309  0.39066873
   0.64620274  0.33333343  0.00000000
   0.14620274  0.00000010  0.00000000
   0.64620274  0.66666677  0.00000000
   0.89620274  0.00000010  0.00000000
   0.89620274  0.33333343  0.00000000
   0.14620274  0.33333343  0.00000000
   0.39620274  0.66666677  0.00000000
   0.39620274  0.00000010  0.00000000
   0.64620274  0.00000010  0.00000000
   0.39620274  0.33333343  0.00000000
   0.89620274  0.66666677  0.00000000
   0.14620274  0.66666677  0.00000000
   0.39620274  0.83333343  0.07856729
   0.64620274  0.83333343  0.07856729
   0.39620274  0.16666677  0.07856729
   0.14620274  0.16666677  0.07856729
   0.89620274  0.16666677  0.07856729
   0.89620274  0.83333343  0.07856729
   0.64620274  0.16666677  0.07856729
   0.14620274  0.83333343  0.07856729
   0.39620274  0.50000010  0.07856729
   0.14620274  0.50000010  0.07856729
   0.89620274  0.50000010  0.07856729
   0.64620274  0.50000010  0.07856729
   0.64606237  0.00059937  0.15659962
   0.39595421  0.66603008  0.15647861
   0.64721012  0.66656413  0.15652756
   0.89530989  0.66660546  0.15654459
   0.14669079  0.00165822  0.15708995
   0.89638697  0.00052473  0.15657085
   0.39576249  0.00185200  0.15703011
   0.14651728  0.66612696  0.15650117
   0.39609852  0.33126580  0.15759419
   0.89650148  0.33369947  0.15704463
   0.64594685  0.33366347  0.15703557
   0.14640790  0.33124945  0.15754156
   0.64552135  0.16753130  0.23467345
   0.64578086  0.83581404  0.23429530
   0.39527665  0.83421478  0.23395028
   0.89697534  0.49877533  0.23524472
   0.14717674  0.83376114  0.23420026
   0.64538470  0.49844753  0.23530272
   0.39595953  0.16589792  0.23863309
   0.89705516  0.16732448  0.23459732
   0.39524605  0.49802253  0.23486224
   0.14704245  0.49810539  0.23472782
   0.14659912  0.16595500  0.23861044
   0.89668561  0.83572185  0.23432728
   0.64730183  0.33077066  0.31389481
   0.89695712  0.00345029  0.31148546
   0.13966152  0.66569016  0.30912274
   0.39454956  0.33994429  0.31672330
   0.64555992  0.00348777  0.31150883
   0.65077211  0.66991647  0.31032608
   0.39692591  0.98920763  0.31551319
   0.89155446  0.66998319  0.31054421
   0.40257462  0.66678532  0.30852782
   0.89543908  0.33112915  0.31348691
   0.14831050  0.34028847  0.31680549
   0.14554270  0.98938404  0.31549254
   0.63723521  0.84063040  0.38884414
   0.15195254  0.80503574  0.40081539
   0.38997672  0.80435809  0.40070183
   0.40010097  0.15555203  0.39144198
   0.14208056  0.15587962  0.39145527
   0.90464361  0.84116844  0.38895737
   0.89978072  0.15808237  0.39294325
   0.64250555  0.15756549  0.39319443
   0.90111648  0.50618669  0.38959505
   0.64033597  0.50668194  0.38950857
   0.15127933  0.53216683  0.40312880
   0.27077695  0.66804971  0.40996182
   0.38800746  0.53102973  0.39997314
   0.43855876  0.52611533  0.52174864
   0.28103138  0.65136591  0.54776689
   0.35898415  0.58892894  0.53375796
 
 position of ions in cartesian coordinates  (Angst):
   8.46780604  1.94100927  0.00000000
   8.46780604  5.82302550  0.00000000
   2.97780604  1.94100927  0.00000000
   8.46780604  9.70504173  0.00000000
   2.97780604  5.82302550  0.00000000
   2.97780604  9.70504173  0.00000000
   5.72280604  0.00000116  1.94100811
   5.72280604  7.76403361  1.94100811
   0.23280604  0.00000116  1.94100811
   5.72280604  3.88201739  1.94100811
   0.23280604  3.88201739  1.94100811
   0.23280604  7.76403361  1.94100811
   8.46792999  1.95231654  3.89205199
   8.46864829  9.71946864  3.87655086
   2.97830451  1.94677813  3.90851447
   8.46828796  5.80617895  3.88929517
   2.97772939  5.80749725  3.88290999
   2.97785469  9.70467399  3.87431701
   0.21239629  7.75988529  5.75221782
   5.74400805  7.76196767  5.74794355
   0.23220205  3.87425767  5.82454151
   0.23665843  0.00870030  5.77477154
   5.71937908  0.00883240  5.77479356
   5.72452059  3.87361628  5.82577463
   8.46788914  5.80739968  7.80298652
   8.46934240  1.95651521  7.83016975
   2.98059464  5.84573442  7.73817511
   2.97721479  9.64065906  7.72123269
   2.97885992  1.92668931  7.88972167
   8.46739942  9.75509051  7.75841316
   0.19042162  0.06362169  9.53170667
   5.76627301  0.06349686  9.53252949
   0.08071332  7.78136568  9.51661547
   5.86670919  7.77737579  9.50279263
   0.20365443  3.85879485  9.64684304
   5.75260299  3.85685788  9.65148695
   7.09530604  3.88201739  0.00000000
   1.60530604  0.00000116  0.00000000
   7.09530604  7.76403361  0.00000000
   9.84030604  0.00000116  0.00000000
   9.84030604  3.88201739  0.00000000
   1.60530604  3.88201739  0.00000000
   4.35030604  7.76403361  0.00000000
   4.35030604  0.00000116  0.00000000
   7.09530604  0.00000116  0.00000000
   4.35030604  3.88201739  0.00000000
   9.84030604  7.76403361  0.00000000
   1.60530604  7.76403361  0.00000000
   4.35030604  9.70504173  1.94100811
   7.09530604  9.70504173  1.94100811
   4.35030604  1.94100927  1.94100811
   1.60530604  1.94100927  1.94100811
   9.84030604  1.94100927  1.94100811
   9.84030604  9.70504173  1.94100811
   7.09530604  1.94100927  1.94100811
   1.60530604  9.70504173  1.94100811
   4.35030604  5.82302550  1.94100811
   1.60530604  5.82302550  1.94100811
   9.84030604  5.82302550  1.94100811
   7.09530604  5.82302550  1.94100811
   7.09376483  0.00698031  3.86879989
   4.34757718  7.75661875  3.86581050
   7.10636712  7.76283827  3.86701974
   9.83050257  7.76331962  3.86744051
   1.61066488  0.01931169  3.88091361
   9.84232888  0.00611109  3.86808930
   4.34547215  0.02156849  3.87943526
   1.60875976  7.75774697  3.86636768
   4.34916172  3.85793764  3.89337083
   9.84358630  3.88628025  3.87979406
   7.09249636  3.88586102  3.87957024
   1.60755879  3.85774723  3.89207072
   7.08782444  1.95107762  5.79761701
   7.09067379  9.73393101  5.78827491
   4.34013757  9.71530595  5.77975109
   9.84878918  5.80876173  5.81173037
   1.61600059  9.71002278  5.78592693
   7.08632399  5.80494425  5.81316329
   4.34763560  1.93205524  5.89544018
   9.84966571  1.94866902  5.79573625
   4.33980158  5.79999466  5.80228113
   1.61452614  5.80095962  5.79896028
   1.60965831  1.93272002  5.89488052
   9.84560798  9.73285734  5.78906507
   7.10737414  3.85217124  7.75478404
   9.84858919  0.04018222  7.69526090
   1.53348344  7.75265998  7.63688990
   4.33215419  3.95900774  7.82466196
   7.08824795  0.04061870  7.69583830
   7.14547773  7.80187987  7.66661840
   4.35824650 11.52036021  7.79476621
   9.78926793  7.80265684  7.67200726
   4.42026936  7.76541433  7.62219231
   9.83192107  3.85634618  7.74470677
   1.62844933  3.96301610  7.82669252
   1.59805886 11.52241471  7.79425608
   6.99684262  9.79002255  9.60641018
   1.66843889  9.37548537  9.90216053
   4.28194435  9.36759344  9.89935490
   4.39310861  1.81156646  9.67058996
   1.56004457  1.81538163  9.67091833
   9.93298684  9.79628864  9.60920761
   9.87959233  1.84103501  9.70767904
   7.05471095  1.83501536  9.71388440
   9.89425890  5.89507484  9.62496155
   7.03088896  5.90084249  9.62282494
   1.66104700  6.19764086  9.95931326
   2.97313091  7.78013941 10.12812339
   4.26032196  6.18439807  9.88135267
   4.81537521  6.12716471 12.88982140
   3.08572452  7.58583906 13.53260325
   3.94164598  6.85869510 13.18651200
 


--------------------------------------------------------------------------------------------------------


 use parallel FFT for wavefunctions z direction half grid
 k-point  1 :   0.0000 0.0000 0.0000  plane waves:   28608

 maximum and minimum number of plane-waves per node :      4774     4761

 maximum number of plane-waves:     28608
 maximum index in each direction: 
   IXMAX=   17   IYMAX=   18   IZMAX=   40
   IXMIN=  -17   IYMIN=  -18   IZMIN=    0

 NGX is ok and might be reduce to  70
 NGY is ok and might be reduce to  74
 NGZ is ok and might be reduce to 162

 real space projection operators:
  total allocation   :      68366.22 KBytes
  max/ min on nodes  :      11612.14      11259.86


 parallel 3D FFT for wavefunctions:
    minimum data exchange during FFTs selected (reduces bandwidth)
 parallel 3D FFT for charge:
    minimum data exchange during FFTs selected (reduces bandwidth)


 total amount of memory used by VASP on root node    88947. kBytes
========================================================================

   base      :      30000. kBytes
   nonlr-proj:      13907. kBytes
   fftplans  :      14971. kBytes
   grid      :      23311. kBytes
   one-center:        933. kBytes
   wavefun   :       5825. kBytes
 
     INWAV:  cpu time    1.66: real time    1.71
 Broyden mixing: mesh for mixing (old mesh)
   NGX = 35   NGY = 37   NGZ = 81
  (NGX  =144   NGY  =160   NGZ  =324)
  gives a total of 104895 points

 charge density for first step will be calculated from the start-wavefunctions


--------------------------------------------------------------------------------------------------------


 Maximum index for non-local projection operator          910
 Maximum index for augmentation-charges         2986 (set IRDMAX)


--------------------------------------------------------------------------------------------------------


 initial charge from wavefunction
 First call to EWALD:  gamma=   0.121
 Maximum number of real-space cells 4x 3x 2
 Maximum number of reciprocal cells 2x 2x 4

 FEWALD executed in parallel
    FEWALD:  cpu time    0.01: real time    0.01


----------------------------------------- Iteration    1(   1)  ---------------------------------------


    POTLOK:  cpu time    0.23: real time    0.23
    SETDIJ:  cpu time    2.28: real time    2.28
     EDDAV:  cpu time    3.91: real time    3.93
       DOS:  cpu time    0.00: real time    0.00
    CHARGE:  cpu time    0.85: real time    0.85
    MIXING:  cpu time    0.00: real time    0.00
    --------------------------------------------
      LOOP:  cpu time    7.28: real time    7.31

 eigenvalue-minimisations  :  1792
 total energy-change (2. order) :-0.8925508E+03  (-0.4947826E-04)
 number of electron     889.9999992 magnetization       2.0000000
 augmentation part      -12.4991836 magnetization       1.6398820

 DIPCOR: dipole corrections for dipol
 direction  3 min pos   233,
 dipolmoment           0.000000      0.000000      0.532856 electrons x Angstroem
 Tr[quadrupol]    -19799.810172

 energy correction for charged system         0.000000 eV
 dipol+quadrupol energy correction           -0.008134 eV
 added-field ion interaction          7.857502 eV  (added to PSCEN)


 Broyden mixing:
  rms(total) = 0.22891E-02    rms(broyden)= 0.22657E-02
  rms(prec ) = 0.23135E-02
  weight for this iteration     100.00

 Free energy of the ion-electron system (eV)
  ---------------------------------------------------
  alpha Z        PSCENC =      2302.04727354
  Ewald energy   TEWEN  =    246090.45350571
  -Hartree energ DENC   =   -314615.94387831
  -exchange      EXHF   =         0.00000000
  -V(xc)+E(xc)   XCENC  =      2339.38450683
  PAW double counting   =     68029.13879658   -67173.52468735
  entropy T*S    EENTRO =        -0.00000000
  eigenvalues    EBANDS =     -8997.29846779
  atomic energy  EATOM  =     71133.19218135
  ---------------------------------------------------
  free energy    TOTEN  =      -892.55076943 eV

  energy without entropy =     -892.55076943  energy(sigma->0) =     -892.55076943


--------------------------------------------------------------------------------------------------------




----------------------------------------- Iteration    1(   2)  ---------------------------------------


    POTLOK:  cpu time    0.21: real time    0.21
    SETDIJ:  cpu time    2.29: real time    2.29
    EDDIAG:  cpu time    0.98: real time    0.99
  RMM-DIIS:  cpu time    1.61: real time    1.61
    ORTHCH:  cpu time    0.17: real time    0.17
       DOS:  cpu time    0.00: real time    0.00
    --------------------------------------------
      LOOP:  cpu time    5.26: real time    5.29

 eigenvalue-minimisations  :  1249
 total energy-change (2. order) :-0.3144870E-04  (-0.1209234E-04)
 number of electron     889.9999992 magnetization       2.0000000
 augmentation part      -12.4991836 magnetization       1.6398820

 DIPCOR: dipole corrections for dipol
 direction  3 min pos   233,
 dipolmoment           0.000000      0.000000      0.531899 electrons x Angstroem
 Tr[quadrupol]    -19799.816562

 energy correction for charged system         0.000000 eV
 dipol+quadrupol energy correction           -0.008104 eV
 added-field ion interaction          7.843391 eV  (added to PSCEN)


 Free energy of the ion-electron system (eV)
  ---------------------------------------------------
  alpha Z        PSCENC =      2302.03319250
  Ewald energy   TEWEN  =    246090.45350571
  -Hartree energ DENC   =   -314616.13455077
  -exchange      EXHF   =         0.00000000
  -V(xc)+E(xc)   XCENC  =      2339.38518967
  PAW double counting   =     68029.15278426   -67173.53909996
  entropy T*S    EENTRO =        -0.00000000
  eigenvalues    EBANDS =     -8997.09400365
  atomic energy  EATOM  =     71133.19218135
  ---------------------------------------------------
  free energy    TOTEN  =      -892.55080087 eV

  energy without entropy =     -892.55080087  energy(sigma->0) =     -892.55080087


--------------------------------------------------------------------------------------------------------




 average (electrostatic) potential at core
  the test charge radii are     1.1513  0.7215  1.2059  0.7215  0.6991
  (the norm of the test charge is              1.0000)
       1 -84.5659       2 -84.5699       3 -84.5667       4 -84.5752       5 -84.5778
       6 -84.5821       7 -84.2004       8 -84.2068       9 -84.2018      10 -84.1993
      11 -84.1996      12 -84.2058      13 -84.2427      14 -84.2787      15 -84.3365
      16 -84.2761      17 -84.2923      18 -84.2926      19 -84.1993      20 -84.1950
      21 -84.2838      22 -84.2893      23 -84.2860      24 -84.2883      25 -84.1799
      26 -84.2050      27 -84.3572      28 -84.4050      29 -84.3109      30 -84.2833
      31 -84.2387      32 -84.2237      33 -83.8776      34 -83.8789      35 -81.1130
      36 -81.1082      37 -73.0816      38 -73.0892      39 -73.0896      40 -73.0853
      41 -73.0816      42 -73.0865      43 -73.0956      44 -73.0890      45 -73.0851
      46 -73.0865      47 -73.0895      48 -73.0955      49 -73.4717      50 -73.4543
      51 -73.4035      52 -73.4036      53 -73.4142      54 -73.4556      55 -73.4132
      56 -73.4718      57 -73.4529      58 -73.4527      59 -73.4291      60 -73.4283
      61 -73.4264      62 -73.4391      63 -73.4677      64 -73.4613      65 -73.4725
      66 -73.4287      67 -73.4691      68 -73.4333      69 -73.4278      70 -73.3912
      71 -73.3885      72 -73.4300      73 -73.3084      74 -73.3805      75 -73.4045
      76 -73.3394      77 -73.4106      78 -73.3397      79 -73.3695      80 -73.3071
      81 -73.3875      82 -73.3880      83 -73.3682      84 -73.3792      85 -73.4057
      86 -73.6513      87 -73.5680      88 -73.4026      89 -73.6472      90 -73.5461
      91 -73.6247      92 -73.5389      93 -73.5741      94 -73.4074      95 -73.4129
      96 -73.6310      97 -73.1481      98 -73.6240      99 -73.6465     100 -73.0565
     101 -73.0582     102 -73.1530     103 -72.9587     104 -72.9576     105 -72.9402
     106 -72.9459     107 -73.5682     108 -72.6907     109 -73.6010     110 -77.2324
     111 -77.1890     112 -58.1822
 
 
 
 E-fermi :   1.1428     XC(G=0):  -6.0305     alpha+bet : -7.5955


 spin component 1

 k-point     1 :       0.0000    0.0000    0.0000
  band No.  band energies     occupation 
      1     -33.9129      1.00000
      2     -33.9051      1.00000
      3     -33.8786      1.00000
      4     -33.8704      1.00000
      5     -33.8659      1.00000
      6     -33.8636      1.00000
      7     -33.6136      1.00000
      8     -33.5709      1.00000
      9     -33.5641      1.00000
     10     -33.5378      1.00000
     11     -33.5147      1.00000
     12     -33.4715      1.00000
     13     -33.4519      1.00000
     14     -33.4500      1.00000
     15     -33.4483      1.00000
     16     -33.4390      1.00000
     17     -33.4262      1.00000
     18     -33.4202      1.00000
     19     -33.4169      1.00000
     20     -33.4139      1.00000
     21     -33.3877      1.00000
     22     -33.3779      1.00000
     23     -33.3745      1.00000
     24     -33.3537      1.00000
     25     -33.3490      1.00000
     26     -33.3398      1.00000
     27     -33.3314      1.00000
     28     -33.3203      1.00000
     29     -33.3177      1.00000
     30     -33.3137      1.00000
     31     -33.3090      1.00000
     32     -33.3072      1.00000
     33     -33.2709      1.00000
     34     -33.2521      1.00000
     35     -32.1539      1.00000
     36     -32.1503      1.00000
     37     -23.6099      1.00000
     38     -22.5999      1.00000
     39     -18.9192      1.00000
     40     -18.8871      1.00000
     41     -18.7546      1.00000
     42     -18.7057      1.00000
     43     -18.6991      1.00000
     44     -18.6634      1.00000
     45     -18.6431      1.00000
     46     -18.5627      1.00000
     47     -18.5414      1.00000
     48     -18.5219      1.00000
     49     -18.4674      1.00000
     50     -18.4280      1.00000
     51     -18.4225      1.00000
     52     -18.4116      1.00000
     53     -18.3822      1.00000
     54     -18.3754      1.00000
     55     -18.3633      1.00000
     56     -18.3514      1.00000
     57     -18.3255      1.00000
     58     -18.3154      1.00000
     59     -18.2892      1.00000
     60     -18.2814      1.00000
     61     -18.2723      1.00000
     62     -18.2186      1.00000
     63     -18.1905      1.00000
     64     -18.1851      1.00000
     65     -18.1382      1.00000
     66     -18.1133      1.00000
     67     -18.0947      1.00000
     68     -18.0902      1.00000
     69     -18.0392      1.00000
     70     -18.0070      1.00000
     71     -17.9714      1.00000
     72     -17.9456      1.00000
     73     -17.9389      1.00000
     74     -17.9356      1.00000
     75     -17.9302      1.00000
     76     -17.9030      1.00000
     77     -17.8513      1.00000
     78     -17.8484      1.00000
     79     -17.8174      1.00000
     80     -17.8019      1.00000
     81     -17.7014      1.00000
     82     -17.6144      1.00000
     83     -17.5939      1.00000
     84     -17.5237      1.00000
     85     -17.4931      1.00000
     86     -17.4916      1.00000
     87     -17.4603      1.00000
     88     -17.3165      1.00000
     89     -17.1822      1.00000
     90     -17.0448      1.00000
     91     -17.0247      1.00000
     92     -16.8038      1.00000
     93     -16.7714      1.00000
     94     -16.7703      1.00000
     95     -16.7285      1.00000
     96     -16.6871      1.00000
     97     -16.6857      1.00000
     98     -16.5582      1.00000
     99     -16.5490      1.00000
    100     -16.5006      1.00000
    101     -16.4897      1.00000
    102     -16.4554      1.00000
    103     -16.4438      1.00000
    104     -16.4391      1.00000
    105     -16.3978      1.00000
    106     -16.3569      1.00000
    107     -16.3361      1.00000
    108     -16.2220      1.00000
    109     -16.2135      1.00000
    110     -16.1747      1.00000
    111     -16.1735      1.00000
    112     -16.1349      1.00000
    113     -16.1323      1.00000
    114     -16.1144      1.00000
    115     -16.1092      1.00000
    116     -16.0991      1.00000
    117     -16.0783      1.00000
    118     -16.0773      1.00000
    119     -16.0638      1.00000
    120     -16.0596      1.00000
    121     -16.0521      1.00000
    122     -16.0249      1.00000
    123     -16.0217      1.00000
    124     -15.9886      1.00000
    125     -15.9837      1.00000
    126     -15.9721      1.00000
    127     -15.9625      1.00000
    128     -15.9364      1.00000
    129     -15.9317      1.00000
    130     -15.9134      1.00000
    131     -15.9112      1.00000
    132     -15.8813      1.00000
    133     -15.8810      1.00000
    134     -15.8643      1.00000
    135     -15.8554      1.00000
    136     -15.8466      1.00000
    137     -15.8253      1.00000
    138     -15.7823      1.00000
    139     -15.7807      1.00000
    140     -15.7544      1.00000
    141     -15.7534      1.00000
    142     -15.7438      1.00000
    143     -15.7326      1.00000
    144     -15.6965      1.00000
    145     -15.6522      1.00000
    146     -15.6501      1.00000
    147     -15.6287      1.00000
    148     -15.5350      1.00000
    149     -15.4549      1.00000
    150     -15.4479      1.00000
    151     -15.4117      1.00000
    152     -15.3677      1.00000
    153     -15.3171      1.00000
    154     -15.2703      1.00000
    155     -15.2540      1.00000
    156     -15.2236      1.00000
    157     -15.1971      1.00000
    158     -15.1095      1.00000
    159     -15.1020      1.00000
    160     -15.0691      1.00000
    161     -15.0466      1.00000
    162     -15.0040      1.00000
    163     -14.9900      1.00000
    164     -14.9816      1.00000
    165     -14.9079      1.00000
    166     -14.8133      1.00000
    167     -14.7367      1.00000
    168     -14.6581      1.00000
    169     -14.5935      1.00000
    170     -14.5436      1.00000
    171     -14.3969      1.00000
    172     -14.3909      1.00000
    173     -14.3161      1.00000
    174     -14.2002      1.00000
    175     -14.1264      1.00000
    176     -14.0655      1.00000
    177     -14.0197      1.00000
    178     -13.8900      1.00000
    179     -13.8833      1.00000
    180     -13.8719      1.00000
    181     -13.8567      1.00000
    182     -13.8345      1.00000
    183     -13.8055      1.00000
    184     -13.7876      1.00000
    185     -13.7751      1.00000
    186     -13.7540      1.00000
    187     -13.7442      1.00000
    188     -13.7405      1.00000
    189     -13.7067      1.00000
    190     -13.6727      1.00000
    191     -13.6246      1.00000
    192     -13.6172      1.00000
    193     -13.5869      1.00000
    194     -13.5472      1.00000
    195     -13.5448      1.00000
    196     -13.5065      1.00000
    197     -13.4563      1.00000
    198     -13.4511      1.00000
    199     -13.4276      1.00000
    200     -13.4043      1.00000
    201     -13.3849      1.00000
    202     -13.3440      1.00000
    203     -13.2891      1.00000
    204     -13.2454      1.00000
    205     -13.2250      1.00000
    206     -13.1926      1.00000
    207     -13.1747      1.00000
    208     -13.1256      1.00000
    209     -13.0673      1.00000
    210     -13.0368      1.00000
    211     -13.0100      1.00000
    212     -12.9648      1.00000
    213     -12.8216      1.00000
    214     -12.8159      1.00000
    215     -12.7822      1.00000
    216     -12.7539      1.00000
    217     -12.6364      1.00000
    218     -12.4656      1.00000
    219      -8.3043      1.00000
    220      -7.1312      1.00000
    221      -7.1125      1.00000
    222      -7.0932      1.00000
    223      -4.4239      1.00000
    224      -4.2729      1.00000
    225      -3.8656      1.00000
    226      -3.7888      1.00000
    227      -3.7741      1.00000
    228      -3.6936      1.00000
    229      -3.6459      1.00000
    230      -3.5984      1.00000
    231      -3.5580      1.00000
    232      -3.5481      1.00000
    233      -3.4664      1.00000
    234      -3.4412      1.00000
    235      -3.3826      1.00000
    236      -3.3738      1.00000
    237      -3.3563      1.00000
    238      -3.2826      1.00000
    239      -3.2145      1.00000
    240      -3.1674      1.00000
    241      -3.1622      1.00000
    242      -3.1489      1.00000
    243      -3.1232      1.00000
    244      -3.0965      1.00000
    245      -3.0904      1.00000
    246      -3.0673      1.00000
    247      -3.0496      1.00000
    248      -3.0424      1.00000
    249      -3.0388      1.00000
    250      -3.0297      1.00000
    251      -3.0201      1.00000
    252      -2.9857      1.00000
    253      -2.9762      1.00000
    254      -2.9298      1.00000
    255      -2.9247      1.00000
    256      -2.9200      1.00000
    257      -2.8973      1.00000
    258      -2.8906      1.00000
    259      -2.8793      1.00000
    260      -2.8612      1.00000
    261      -2.8447      1.00000
    262      -2.8359      1.00000
    263      -2.7878      1.00000
    264      -2.7725      1.00000
    265      -2.7635      1.00000
    266      -2.7609      1.00000
    267      -2.7440      1.00000
    268      -2.7299      1.00000
    269      -2.7156      1.00000
    270      -2.7106      1.00000
    271      -2.6870      1.00000
    272      -2.6708      1.00000
    273      -2.6665      1.00000
    274      -2.6461      1.00000
    275      -2.6268      1.00000
    276      -2.5946      1.00000
    277      -2.5748      1.00000
    278      -2.5725      1.00000
    279      -2.5498      1.00000
    280      -2.5482      1.00000
    281      -2.5422      1.00000
    282      -2.5387      1.00000
    283      -2.4592      1.00000
    284      -2.4569      1.00000
    285      -2.4000      1.00000
    286      -2.3758      1.00000
    287      -2.3652      1.00000
    288      -2.3561      1.00000
    289      -2.3387      1.00000
    290      -2.2990      1.00000
    291      -2.2810      1.00000
    292      -2.2721      1.00000
    293      -2.2662      1.00000
    294      -2.2473      1.00000
    295      -2.2331      1.00000
    296      -2.2277      1.00000
    297      -2.2129      1.00000
    298      -2.1687      1.00000
    299      -2.1609      1.00000
    300      -2.1581      1.00000
    301      -2.1290      1.00000
    302      -2.1244      1.00000
    303      -2.0934      1.00000
    304      -2.0891      1.00000
    305      -2.0334      1.00000
    306      -2.0032      1.00000
    307      -1.9917      1.00000
    308      -1.9640      1.00000
    309      -1.9384      1.00000
    310      -1.9332      1.00000
    311      -1.9070      1.00000
    312      -1.8848      1.00000
    313      -1.8803      1.00000
    314      -1.8439      1.00000
    315      -1.8068      1.00000
    316      -1.7800      1.00000
    317      -1.7721      1.00000
    318      -1.7652      1.00000
    319      -1.7432      1.00000
    320      -1.7195      1.00000
    321      -1.7169      1.00000
    322      -1.7009      1.00000
    323      -1.6927      1.00000
    324      -1.6836      1.00000
    325      -1.6514      1.00000
    326      -1.6498      1.00000
    327      -1.6322      1.00000
    328      -1.6171      1.00000
    329      -1.5881      1.00000
    330      -1.5872      1.00000
    331      -1.5700      1.00000
    332      -1.5632      1.00000
    333      -1.5619      1.00000
    334      -1.5540      1.00000
    335      -1.5481      1.00000
    336      -1.5314      1.00000
    337      -1.5109      1.00000
    338      -1.5100      1.00000
    339      -1.4704      1.00000
    340      -1.4646      1.00000
    341      -1.4424      1.00000
    342      -1.4361      1.00000
    343      -1.4267      1.00000
    344      -1.4028      1.00000
    345      -1.3954      1.00000
    346      -1.3678      1.00000
    347      -1.3616      1.00000
    348      -1.3362      1.00000
    349      -1.3053      1.00000
    350      -1.3033      1.00000
    351      -1.2979      1.00000
    352      -1.2545      1.00000
    353      -1.2298      1.00000
    354      -1.2134      1.00000
    355      -1.2000      1.00000
    356      -1.1804      1.00000
    357      -1.1658      1.00000
    358      -1.1502      1.00000
    359      -1.1398      1.00000
    360      -1.1223      1.00000
    361      -1.1134      1.00000
    362      -1.1063      1.00000
    363      -1.0788      1.00000
    364      -1.0748      1.00000
    365      -1.0563      1.00000
    366      -1.0441      1.00000
    367      -1.0376      1.00000
    368      -1.0362      1.00000
    369      -1.0257      1.00000
    370      -1.0166      1.00000
    371      -0.9839      1.00000
    372      -0.9509      1.00000
    373      -0.9486      1.00000
    374      -0.9296      1.00000
    375      -0.9158      1.00000
    376      -0.9122      1.00000
    377      -0.8832      1.00000
    378      -0.8751      1.00000
    379      -0.8536      1.00000
    380      -0.8508      1.00000
    381      -0.8406      1.00000
    382      -0.8302      1.00000
    383      -0.8197      1.00000
    384      -0.8142      1.00000
    385      -0.7887      1.00000
    386      -0.7841      1.00000
    387      -0.7728      1.00000
    388      -0.7678      1.00000
    389      -0.7637      1.00000
    390      -0.7547      1.00000
    391      -0.7485      1.00000
    392      -0.7424      1.00000
    393      -0.7179      1.00000
    394      -0.7097      1.00000
    395      -0.7044      1.00000
    396      -0.6890      1.00000
    397      -0.6606      1.00000
    398      -0.6476      1.00000
    399      -0.6301      1.00000
    400      -0.6180      1.00000
    401      -0.5990      1.00000
    402      -0.5866      1.00000
    403      -0.5498      1.00000
    404      -0.5489      1.00000
    405      -0.5240      1.00000
    406      -0.5030      1.00000
    407      -0.4911      1.00000
    408      -0.4791      1.00000
    409      -0.4753      1.00000
    410      -0.4714      1.00000
    411      -0.4383      1.00000
    412      -0.4216      1.00000
    413      -0.4099      1.00000
    414      -0.4084      1.00000
    415      -0.3956      1.00000
    416      -0.3713      1.00000
    417      -0.3377      1.00000
    418      -0.3343      1.00000
    419      -0.3239      1.00000
    420      -0.2986      1.00000
    421      -0.2838      1.00000
    422      -0.2815      1.00000
    423      -0.2755      1.00000
    424      -0.2524      1.00000
    425      -0.2459      1.00000
    426      -0.2311      1.00000
    427      -0.2251      1.00000
    428      -0.2216      1.00000
    429      -0.1970      1.00000
    430      -0.1710      1.00000
    431      -0.1626      1.00000
    432      -0.1568      1.00000
    433      -0.1521      1.00000
    434      -0.1167      1.00000
    435      -0.0176      1.00000
    436      -0.0154      1.00000
    437       0.0321      1.00000
    438       0.1547      1.00000
    439       0.1573      1.00000
    440       0.2867      1.00000
    441       0.2919      1.00000
    442       0.3016      1.00000
    443       0.5141      1.00000
    444       0.6492      1.00000
    445       0.8290      1.00000
    446       0.8438      1.00000
    447       1.9121      0.00000
    448       2.0004      0.00000
    449       2.0040      0.00000
    450       2.0051      0.00000
    451       2.0110      0.00000
    452       2.0182      0.00000
    453       2.0207      0.00000
    454       2.0241      0.00000
    455       2.0415      0.00000
    456       2.0483      0.00000
    457       2.0853      0.00000
    458       2.0959      0.00000
    459       2.1003      0.00000
    460       2.1039      0.00000
    461       2.1185      0.00000
    462       2.1249      0.00000
    463       2.1278      0.00000
    464       2.1339      0.00000
    465       2.1354      0.00000
    466       2.1689      0.00000
    467       2.1817      0.00000
    468       2.2069      0.00000
    469       2.2082      0.00000
    470       2.2144      0.00000
    471       2.2210      0.00000
    472       2.2216      0.00000
    473       2.2233      0.00000
    474       2.2287      0.00000
    475       2.2323      0.00000
    476       2.2340      0.00000
    477       2.2381      0.00000
    478       2.2392      0.00000
    479       2.2407      0.00000
    480       2.2430      0.00000
    481       2.2478      0.00000
    482       2.2563      0.00000
    483       2.2599      0.00000
    484       2.2712      0.00000
    485       2.2812      0.00000
    486       2.2897      0.00000
    487       2.2962      0.00000
    488       2.3024      0.00000
    489       2.3039      0.00000
    490       2.3095      0.00000
    491       2.3241      0.00000
    492       2.3260      0.00000
    493       2.3329      0.00000
    494       2.3337      0.00000
    495       2.3356      0.00000
    496       2.3387      0.00000
    497       2.3421      0.00000
    498       2.3586      0.00000
    499       2.3602      0.00000
    500       2.3627      0.00000
    501       2.3690      0.00000
    502       2.3732      0.00000
    503       2.3777      0.00000
    504       2.3809      0.00000
    505       2.3874      0.00000
    506       2.3880      0.00000
    507       2.3896      0.00000
    508       2.3943      0.00000
    509       2.3986      0.00000
    510       2.3996      0.00000
    511       2.4028      0.00000
    512       2.4071      0.00000
    513       2.4073      0.00000
    514       2.4144      0.00000
    515       2.4153      0.00000
    516       2.4172      0.00000
    517       2.4183      0.00000
    518       2.4221      0.00000
    519       2.4271      0.00000
    520       2.4290      0.00000
    521       2.4320      0.00000
    522       2.4325      0.00000
    523       2.4349      0.00000
    524       2.4378      0.00000
    525       2.4407      0.00000
    526       2.4421      0.00000
    527       2.4438      0.00000
    528       2.4488      0.00000
    529       2.4494      0.00000
    530       2.4513      0.00000
    531       2.4533      0.00000
    532       2.4581      0.00000
    533       2.4604      0.00000
    534       2.4612      0.00000
    535       2.4629      0.00000
    536       2.4708      0.00000
    537       2.4727      0.00000
    538       2.4750      0.00000
    539       2.4806      0.00000
    540       2.4814      0.00000
    541       2.4866      0.00000
    542       2.4873      0.00000
    543       2.4911      0.00000
    544       2.4940      0.00000
    545       2.4975      0.00000
[...]
      1.60531      7.76403      0.00000         1.145367      0.006740     -0.456871
      4.35031      9.70504      1.94101        -0.345404      0.032558     -0.314934
      7.09531      9.70504      1.94101         0.338897      0.015208     -0.350237
      4.35031      1.94101      1.94101        -0.389261      0.016178     -0.310571
      1.60531      1.94101      1.94101         0.389256      0.009262     -0.306315
      9.84031      1.94101      1.94101        -0.345765      0.030098     -0.362114
      9.84031      9.70504      1.94101        -0.336994      0.015467     -0.353808
      7.09531      1.94101      1.94101         0.347053      0.029950     -0.364046
      1.60531      9.70504      1.94101         0.345239      0.034645     -0.318426
      4.35031      5.82303      1.94101        -0.356678     -0.076193     -0.311919
      1.60531      5.82303      1.94101         0.356197     -0.074447     -0.311000
      9.84031      5.82303      1.94101        -0.346587     -0.018126     -0.344117
      7.09531      5.82303      1.94101         0.346369     -0.017807     -0.344474
      7.09379      0.00698      3.86879         0.001845     -0.000121     -0.000459
      4.34755      7.75661      3.86581        -0.002468     -0.000225      0.000528
      7.10639      7.76283      3.86701         0.001900     -0.000124     -0.000428
      9.83049      7.76331      3.86745        -0.001043     -0.000310      0.001214
      1.61067      0.01931      3.88093         0.000155     -0.000218      0.002303
      9.84232      0.00611      3.86811        -0.000616      0.000051      0.002325
      4.34545      0.02154      3.87942        -0.002013     -0.001982     -0.000634
      1.60877      7.75773      3.86638         0.001070     -0.000885      0.001614
      4.34913      3.85795      3.89334        -0.002445      0.000873     -0.001564
      9.84358      3.88628      3.87976        -0.000493      0.000105     -0.001748
      7.09253      3.88586      3.87952         0.002083      0.000216     -0.003054
      1.60758      3.85776      3.89205         0.001076      0.000673     -0.000928
      7.08786      1.95102      5.79761         0.002460     -0.004197      0.000392
      7.09071      9.73393      5.78827         0.002565      0.000167      0.000721
      4.34008      9.71530      5.77977        -0.004188     -0.000111      0.002142
      9.84876      5.80878      5.81177        -0.001969      0.001251      0.003067
      1.61603      9.71002      5.78594         0.001960      0.000275      0.001723
      7.08636      5.80498      5.81317         0.002533      0.003058      0.001147
      4.34759      1.93202      5.89544        -0.003401     -0.002808      0.001505
      9.84964      1.94862      5.79576        -0.001861     -0.003399      0.002416
      4.33975      5.80003      5.80229        -0.003565      0.002784      0.001752
      1.61457      5.80099      5.79898         0.003420      0.002561      0.002370
      1.60968      1.93270      5.89493         0.001834     -0.001611      0.004237
      9.84559      9.73288      5.78907        -0.001404      0.001889      0.001445
      7.10734      3.85217      7.75484        -0.002168      0.000144      0.004344
      9.84860      0.04014      7.69531         0.000892     -0.002821      0.003943
      1.53351      7.75268      7.63693         0.001756      0.001912      0.004378
      4.33219      3.95903      7.82477         0.002015      0.001831      0.008899
      7.08827      0.04058      7.69585         0.001867     -0.003037      0.001861
      7.14551      7.80190      7.66666         0.002618      0.001162      0.003972
      4.35818     11.52034      7.79476        -0.004764     -0.001627      0.000119
      9.78924      7.80267      7.67205        -0.001741      0.001278      0.004117
      4.42026      7.76544      7.62223        -0.000812      0.002799      0.004230
      9.83194      3.85635      7.74480         0.000717      0.000608      0.007164
      1.62842      3.96300      7.82679        -0.001930     -0.001047      0.007561
      1.59808     11.52242      7.79430         0.001271      0.000145      0.003736
      6.99685      9.79000      9.60641         0.000097     -0.001922      0.000647
      1.66843      9.37558      9.90219        -0.000087      0.005233      0.003147
      4.28196      9.36769      9.89935         0.000269      0.005592      0.000602
      4.39311      1.81162      9.67055        -0.000005      0.004534     -0.001673
      1.56004      1.81540      9.67094        -0.000626      0.001503      0.002456
      9.93298      9.79630      9.60922        -0.000195      0.000418      0.000590
      9.87966      1.84106      9.70769         0.004949      0.002211      0.000676
      7.05469      1.83509      9.71387        -0.001933      0.005542     -0.000067
      9.89427      5.89502      9.62497         0.001198     -0.003888      0.001218
      7.03083      5.90078      9.62280        -0.004399     -0.004874     -0.000572
      1.66105      6.19773      9.95938        -0.001744      0.005345      0.005526
      2.97320      7.78006     10.12813        -0.000399      0.002598      0.000860
      4.26032      6.18447      9.88142         0.001104      0.003435      0.006717
      4.81636      6.12670     12.88972         0.010692      0.022873      0.021089
      3.08488      7.58606     13.53310        -0.030710     -0.018649      0.029036
      3.94148      6.85875     13.18667         0.018018     -0.023156      0.009912
 -----------------------------------------------------------------------------------
    total drift:                                0.004587     -0.010678     -0.104308


--------------------------------------------------------------------------------------------------------



  FREE ENERGIE OF THE ION-ELECTRON SYSTEM (eV)
  ---------------------------------------------------
  free  energy   TOTEN  =      -913.57083722 eV

  energy  without entropy=     -913.57083722  energy(sigma->0) =     -913.57083722
 
 d Force = 0.1560531E-03[ 0.449E-04, 0.267E-03]  d Energy = 0.1936128E-03-0.376E-04
 d Force = 0.1256912E+01[ 0.126E+01, 0.126E+01]  d Ewald  = 0.1256912E+01 0.220E-06


--------------------------------------------------------------------------------------------------------


    POTLOK:  cpu time    2.49: real time    2.49


--------------------------------------------------------------------------------------------------------


 stress matrix after NEB project (eV)
    -65.79908     -0.27465     -0.11701
     -0.27445   -122.12865      0.00281
     -0.11690      0.00305    -67.47708
  FORCES: max atom, RMS     0.046195    0.006882
  FORCE total and by dimension    0.072835    0.030710
  Stress total and by dimension  154.266853  122.128652
 Steepest descent step on ions:
 trial-energy change:   -0.000194  1 .order   -0.000156   -0.000267   -0.000045
  (g-gl).g = 0.267E-03      g.g   = 0.267E-03  gl.gl    = 0.000E+00
 g(Force)  = 0.267E-03   g(Stress)= 0.000E+00 ortho     = 0.000E+00
 gamma     =   0.00000
 trial     =   1.00000
 opt step  =   1.20197  (harmonic =   1.20197) maximal distance =0.00118223
 next E    =  -913.570804   (d E  =  -0.00016)


--------------------------------------------------------------------------------------------------------


  
 reached required accuracy - stopping structural energy minimisation
 writing wavefunctions
     LOOP+:  cpu time   41.35: real time   43.06
    4ORBIT:  cpu time    0.00: real time    0.00
 


 total charge     
 
# of ion     s       p       d       f       tot
------------------------------------------------
  1        1.992   5.764   0.873   0.774   9.402
  2        1.992   5.764   0.872   0.774   9.402
  3        1.992   5.764   0.873   0.773   9.401
  4        1.992   5.764   0.872   0.774   9.402
  5        1.992   5.764   0.872   0.774   9.402
  6        1.991   5.764   0.872   0.775   9.402
  7        1.994   5.819   0.904   0.722   9.439
  8        1.994   5.819   0.906   0.723   9.441
  9        1.994   5.819   0.904   0.722   9.439
 10        1.993   5.818   0.901   0.721   9.434
 11        1.993   5.818   0.901   0.721   9.434
 12        1.994   5.819   0.905   0.723   9.441
 13        1.995   5.820   0.913   0.725   9.453
 14        1.995   5.821   0.917   0.726   9.459
 15        1.993   5.818   0.903   0.723   9.438
 16        1.995   5.820   0.912   0.725   9.451
 17        1.995   5.820   0.912   0.725   9.452
 18        1.995   5.820   0.916   0.727   9.459
 19        1.997   5.822   0.930   0.734   9.483
 20        1.997   5.822   0.932   0.735   9.486
 21        1.994   5.819   0.906   0.724   9.443
 22        1.995   5.821   0.920   0.727   9.464
 23        1.995   5.821   0.921   0.727   9.464
 24        1.994   5.819   0.906   0.724   9.442
 25        1.993   5.819   0.916   0.723   9.451
 26        1.994   5.819   0.916   0.724   9.453
 27        1.992   5.812   0.906   0.729   9.439
 28        1.992   5.814   0.909   0.729   9.444
 29        1.990   5.812   0.894   0.725   9.421
 30        1.994   5.820   0.915   0.725   9.453
 31        2.004   5.772   1.042   0.787   9.604
 32        2.004   5.772   1.045   0.788   9.608
 33        2.004   5.792   1.049   0.803   9.649
 34        2.005   5.792   1.052   0.804   9.653
 35        2.023   5.745   0.696   1.160   9.624
 36        2.022   5.745   0.693   1.160   9.621
 37        1.600   3.384   0.000   0.000   4.985
 38        1.600   3.384   0.000   0.000   4.984
 39        1.600   3.384   0.000   0.000   4.985
 40        1.600   3.384   0.000   0.000   4.985
 41        1.600   3.384   0.000   0.000   4.985
 42        1.600   3.384   0.000   0.000   4.984
 43        1.600   3.384   0.000   0.000   4.985
 44        1.600   3.384   0.000   0.000   4.984
 45        1.600   3.384   0.000   0.000   4.985
 46        1.600   3.384   0.000   0.000   4.984
 47        1.600   3.384   0.000   0.000   4.985
 48        1.600   3.384   0.000   0.000   4.985
 49        1.597   3.458   0.000   0.000   5.055
 50        1.597   3.458   0.000   0.000   5.055
 51        1.596   3.454   0.000   0.000   5.050
 52        1.596   3.454   0.000   0.000   5.050
 53        1.597   3.456   0.000   0.000   5.052
 54        1.597   3.458   0.000   0.000   5.055
 55        1.597   3.456   0.000   0.000   5.052
 56        1.597   3.458   0.000   0.000   5.055
 57        1.597   3.457   0.000   0.000   5.054
 58        1.597   3.457   0.000   0.000   5.054
 59        1.597   3.456   0.000   0.000   5.053
 60        1.597   3.456   0.000   0.000   5.053
 61        1.598   3.466   0.000   0.000   5.064
 62        1.598   3.466   0.000   0.000   5.064
 63        1.599   3.467   0.000   0.000   5.065
 64        1.599   3.466   0.000   0.000   5.065
 65        1.598   3.465   0.000   0.000   5.063
 66        1.598   3.466   0.000   0.000   5.064
 67        1.598   3.465   0.000   0.000   5.063
 68        1.598   3.466   0.000   0.000   5.064
 69        1.598   3.462   0.000   0.000   5.060
 70        1.598   3.463   0.000   0.000   5.061
 71        1.598   3.463   0.000   0.000   5.061
 72        1.598   3.462   0.000   0.000   5.060
 73        1.598   3.456   0.000   0.000   5.053
 74        1.598   3.461   0.000   0.000   5.058
 75        1.597   3.462   0.000   0.000   5.059
 76        1.597   3.458   0.000   0.000   5.056
 77        1.597   3.462   0.000   0.000   5.059
 78        1.597   3.458   0.000   0.000   5.055
 79        1.597   3.451   0.000   0.000   5.047
 80        1.597   3.456   0.000   0.000   5.053
 81        1.597   3.461   0.000   0.000   5.058
 82        1.597   3.461   0.000   0.000   5.058
 83        1.597   3.450   0.000   0.000   5.047
 84        1.598   3.460   0.000   0.000   5.058
 85        1.597   3.477   0.000   0.000   5.074
 86        1.600   3.480   0.000   0.000   5.079
 87        1.599   3.468   0.000   0.000   5.067
 88        1.596   3.467   0.000   0.000   5.063
 89        1.600   3.480   0.000   0.000   5.079
 90        1.600   3.482   0.000   0.000   5.082
 91        1.598   3.468   0.000   0.000   5.066
 92        1.600   3.481   0.000   0.000   5.081
 93        1.600   3.470   0.000   0.000   5.070
 94        1.597   3.476   0.000   0.000   5.074
 95        1.596   3.467   0.000   0.000   5.063
 96        1.598   3.468   0.000   0.000   5.066
 97        1.602   3.423   0.000   0.000   5.025
 98        1.596   3.390   0.000   0.000   4.986
 99        1.596   3.391   0.000   0.000   4.987
100        1.603   3.427   0.000   0.000   5.030
101        1.603   3.427   0.000   0.000   5.030
102        1.602   3.423   0.000   0.000   5.026
103        1.600   3.431   0.000   0.000   5.031
104        1.600   3.430   0.000   0.000   5.030
105        1.602   3.435   0.000   0.000   5.036
106        1.602   3.435   0.000   0.000   5.037
107        1.595   3.394   0.000   0.000   4.989
108        0.665   0.574   8.048   0.000   9.288
109        1.596   3.399   0.000   0.000   4.995
110        1.629   3.549   0.000   0.000   5.179
111        1.633   3.542   0.000   0.000   5.175
112        0.932   1.797   0.000   0.000   2.729
------------------------------------------------
tot      191.812 466.165  40.729  27.554 726.260

 


 magnetization (x)
 
# of ion     s       p       d       f       tot
------------------------------------------------
  1       -0.000  -0.000  -0.000   0.000  -0.000
  2        0.000  -0.000   0.000   0.000   0.000
  3        0.000   0.000   0.000   0.000   0.000
  4       -0.000   0.000   0.000   0.000   0.000
  5        0.000  -0.000   0.000   0.000   0.000
  6       -0.000  -0.000   0.000   0.000  -0.000
  7       -0.000  -0.000   0.000   0.000   0.000
  8        0.000  -0.000  -0.000   0.000   0.000
  9       -0.000  -0.000  -0.000  -0.000  -0.000
 10        0.000  -0.000   0.000   0.000   0.000
 11       -0.000  -0.000  -0.000  -0.000  -0.000
 12       -0.000  -0.000   0.000   0.000   0.000
 13       -0.000  -0.000  -0.000   0.000   0.000
 14       -0.000   0.000  -0.000  -0.000  -0.000
 15        0.000  -0.000   0.000   0.000   0.000
 16       -0.000  -0.000   0.000   0.000   0.000
 17       -0.000  -0.000   0.000   0.000   0.000
 18       -0.000  -0.000  -0.000  -0.000  -0.000
 19        0.000  -0.000   0.000   0.000   0.000
 20       -0.000  -0.000  -0.000   0.000   0.000
 21       -0.000  -0.000   0.000   0.004   0.004
 22       -0.000  -0.000   0.000   0.000   0.000
 23       -0.000  -0.000  -0.000   0.000   0.000
 24       -0.000  -0.000  -0.000   0.001   0.001
 25       -0.000  -0.000  -0.000   0.001   0.001
 26       -0.000  -0.000   0.000   0.004   0.004
 27       -0.000  -0.000   0.000   0.004   0.004
 28        0.000  -0.000   0.000   0.000   0.000
 29       -0.000  -0.000   0.000   0.003   0.003
 30        0.000  -0.000  -0.000   0.000   0.000
 31        0.000  -0.000  -0.000   0.001   0.001
 32       -0.000  -0.000   0.000   0.006   0.006
 33       -0.000  -0.000  -0.000  -0.000  -0.001
 34       -0.000  -0.000  -0.000   0.001   0.001
 35       -0.003  -0.006   0.013   0.977   0.980
 36       -0.004  -0.006   0.011   0.979   0.980
 37       -0.000  -0.000   0.000   0.000  -0.000
 38       -0.000  -0.000   0.000   0.000  -0.000
 39       -0.000  -0.000   0.000   0.000  -0.000
 40       -0.000  -0.000   0.000   0.000  -0.000
 41       -0.000  -0.000   0.000   0.000  -0.000
 42       -0.000  -0.000   0.000   0.000  -0.000
 43       -0.000  -0.000   0.000   0.000  -0.000
 44       -0.000  -0.000   0.000   0.000  -0.000
 45       -0.000  -0.000   0.000   0.000  -0.000
 46       -0.000  -0.000   0.000   0.000  -0.000
 47       -0.000  -0.000   0.000   0.000  -0.000
 48       -0.000  -0.000   0.000   0.000  -0.000
 49       -0.000  -0.000   0.000   0.000  -0.000
 50       -0.000  -0.000   0.000   0.000  -0.000
 51       -0.000  -0.000   0.000   0.000  -0.000
 52       -0.000  -0.000   0.000   0.000  -0.000
 53       -0.000  -0.000   0.000   0.000  -0.000
 54        0.000  -0.000   0.000   0.000  -0.000
 55       -0.000  -0.000   0.000   0.000  -0.000
 56       -0.000  -0.000   0.000   0.000  -0.000
 57        0.000  -0.000   0.000   0.000  -0.000
 58       -0.000  -0.000   0.000   0.000  -0.000
 59        0.000  -0.000   0.000   0.000  -0.000
 60       -0.000  -0.000   0.000   0.000  -0.000
 61       -0.000  -0.000   0.000   0.000  -0.000
 62       -0.000  -0.000   0.000   0.000  -0.000
 63       -0.000  -0.000   0.000   0.000  -0.000
 64       -0.000  -0.000   0.000   0.000  -0.000
 65       -0.000  -0.000   0.000   0.000  -0.000
 66       -0.000  -0.000   0.000   0.000  -0.000
 67       -0.000  -0.000   0.000   0.000  -0.000
 68       -0.000  -0.000   0.000   0.000  -0.000
 69       -0.000  -0.000   0.000   0.000  -0.000
 70       -0.000  -0.000   0.000   0.000  -0.000
 71       -0.000  -0.000   0.000   0.000  -0.000
 72       -0.000  -0.000   0.000   0.000  -0.000
 73       -0.000  -0.000   0.000   0.000  -0.000
 74       -0.000  -0.000   0.000   0.000  -0.000
 75       -0.000  -0.000   0.000   0.000  -0.000
 76       -0.000  -0.000   0.000   0.000  -0.000
 77       -0.000  -0.000   0.000   0.000  -0.000
 78       -0.000  -0.000   0.000   0.000  -0.000
 79       -0.000  -0.000   0.000   0.000  -0.000
 80       -0.000  -0.000   0.000   0.000  -0.000
 81       -0.000  -0.000   0.000   0.000  -0.000
 82       -0.000  -0.000   0.000   0.000  -0.000
 83       -0.000  -0.000   0.000   0.000  -0.000
 84       -0.000  -0.000   0.000   0.000  -0.000
 85       -0.000  -0.003   0.000   0.000  -0.003
 86       -0.000  -0.000   0.000   0.000  -0.000
 87       -0.000  -0.000   0.000   0.000  -0.000
 88       -0.000  -0.004   0.000   0.000  -0.004
 89       -0.000  -0.000   0.000   0.000  -0.000
 90       -0.000  -0.000   0.000   0.000  -0.000
 91       -0.000  -0.000   0.000   0.000  -0.000
 92       -0.000  -0.000   0.000   0.000  -0.000
 93       -0.000  -0.000   0.000   0.000  -0.000
 94       -0.000  -0.005   0.000   0.000  -0.005
 95       -0.000  -0.006   0.000   0.000  -0.006
 96       -0.000  -0.000   0.000   0.000  -0.000
 97       -0.000  -0.001   0.000   0.000  -0.001
 98        0.000   0.000   0.000   0.000   0.000
 99       -0.000  -0.000   0.000   0.000  -0.001
100       -0.000  -0.005   0.000   0.000  -0.005
101       -0.000  -0.003   0.000   0.000  -0.004
102       -0.000  -0.000   0.000   0.000  -0.000
103       -0.000  -0.004   0.000   0.000  -0.004
104       -0.000  -0.006   0.000   0.000  -0.007
105       -0.000  -0.004   0.000   0.000  -0.004
106       -0.000  -0.004   0.000   0.000  -0.004
107       -0.000  -0.001   0.000   0.000  -0.001
108        0.000  -0.000   0.001   0.000   0.001
109        0.000  -0.002   0.000   0.000  -0.002
110        0.000  -0.000   0.000   0.000  -0.000
111       -0.000  -0.000   0.000   0.000  -0.000
112        0.000   0.000   0.000   0.000   0.000
------------------------------------------------
tot       -0.010  -0.064   0.026   1.981   1.933

 

 total amount of memory used by VASP on root node    88947. kBytes
========================================================================

   base      :      30000. kBytes
   nonlr-proj:      13907. kBytes
   fftplans  :      14971. kBytes
   grid      :      23311. kBytes
   one-center:        933. kBytes
   wavefun   :       5825. kBytes
 
  
  
 General timing and accounting informations for this job:
 ========================================================
  
                  Total CPU time used (sec):      116.392
                            User time (sec):      109.583
                          System time (sec):        6.809
                         Elapsed time (sec):      125.128
  
                   Maximum memory used (kb):      314284.
                   Average memory used (kb):           0.
  
                          Minor page faults:       147483
                          Major page faults:            1
                 Voluntary context switches:        43232
