       N       E                     dE             d eps       ncg     rms          rms(c)
DAV:   1    -0.929211246653E+03   -0.92921E+03   -0.13880E+03  3152   0.458E+01    0.632E+01
RMM:   2    -0.197537759179E+04   -0.10462E+04   -0.15753E+03  3863   0.615E+01    0.341E+02
RMM:   3    -0.983152357388E+03    0.99223E+03   -0.25914E+02  2987   0.416E+01    0.736E+01
RMM:   4    -0.100253855846E+04   -0.19386E+02   -0.34680E+02  3394   0.286E+01    0.158E+02
RMM:   5    -0.945178308669E+03    0.57360E+02   -0.65062E+01  2929   0.185E+01    0.417E+01
RMM:   6    -0.917829389489E+03    0.27349E+02   -0.20935E+01  3176   0.684E+00    0.314E+01
RMM:   7    -0.894218588802E+03    0.23611E+02   -0.11295E+02  3218   0.128E+01    0.260E+01
RMM:   8    -0.892329226094E+03    0.18894E+01   -0.16535E+01  2690   0.775E+00    0.165E+01
RMM:   9    -0.888929781595E+03    0.33994E+01   -0.16423E+01  3216   0.412E+00    0.126E+01
RMM:  10    -0.886318607887E+03    0.26112E+01   -0.80381E+00  3181   0.311E+00    0.942E+00
RMM:  11    -0.885433182296E+03    0.88543E+00   -0.31895E+00  3268   0.178E+00    0.643E+00
RMM:  12    -0.885222511678E+03    0.21067E+00   -0.64733E+00  3237   0.272E+00    0.409E+00
RMM:  13    -0.884988886840E+03    0.23362E+00   -0.11411E+00  2827   0.164E+00    0.404E+00
RMM:  14    -0.885041807864E+03   -0.52921E-01   -0.12748E+00  3263   0.885E-01    0.366E+00
RMM:  15    -0.884975223293E+03    0.66585E-01   -0.41818E-01  2924   0.932E-01    0.170E+00
RMM:  16    -0.884996353147E+03   -0.21130E-01   -0.36769E-01  3238   0.515E-01    0.137E+00
RMM:  17    -0.884977841933E+03    0.18511E-01   -0.35851E-02  2934   0.255E-01    0.124E+00
RMM:  18    -0.884974623016E+03    0.32189E-02   -0.84590E-02  3212   0.254E-01    0.112E+00
RMM:  19    -0.884971915129E+03    0.27079E-02   -0.17627E-02  3113   0.156E-01    0.988E-01
RMM:  20    -0.884973162902E+03   -0.12478E-02   -0.65991E-03  3127   0.771E-02    0.938E-01
RMM:  21    -0.884972905397E+03    0.25751E-03   -0.25556E-03  2798   0.685E-02    0.915E-01
RMM:  22    -0.884970342024E+03    0.25634E-02   -0.19626E-03  2432   0.650E-02    0.879E-01
RMM:  23    -0.884969972944E+03    0.36908E-03   -0.78493E-04  1986   0.399E-02    0.857E-01
RMM:  24    -0.884968748092E+03    0.12249E-02   -0.72742E-04  1897   0.452E-02    0.829E-01
RMM:  25    -0.884967694114E+03    0.10540E-02   -0.70649E-04  2000   0.383E-02    0.793E-01
RMM:  26    -0.884965465224E+03    0.22289E-02   -0.16905E-03  2350   0.586E-02    0.734E-01
RMM:  27    -0.884965131038E+03    0.33419E-03   -0.34023E-04  1639   0.326E-02    0.714E-01
RMM:  28    -0.884964931149E+03    0.19989E-03   -0.16597E-04  1491   0.305E-02    0.707E-01
RMM:  29    -0.884963513102E+03    0.14180E-02   -0.56698E-04  1802   0.392E-02    0.653E-01
RMM:  30    -0.884961624035E+03    0.18891E-02   -0.14201E-03  2242   0.508E-02    0.580E-01
RMM:  31    -0.884960716936E+03    0.90710E-03   -0.52990E-04  1808   0.412E-02    0.545E-01
RMM:  32    -0.884961101120E+03   -0.38418E-03   -0.14131E-04  1482   0.315E-02    0.551E-01
RMM:  33    -0.884961258624E+03   -0.15750E-03   -0.79282E-05  1471   0.209E-02    0.559E-01
RMM:  34    -0.884960624874E+03    0.63375E-03   -0.17189E-04  1480   0.267E-02    0.547E-01
RMM:  35    -0.884960715219E+03   -0.90344E-04   -0.90749E-05  1464   0.274E-02
   1 F= -.90600070E+03 E0= -.90600070E+03  d E =-.906001E+03  mag=     0.0001
       N       E                     dE             d eps       ncg     rms          rms(c)
DAV:   1    -0.884959770563E+03    0.85431E-03   -0.24195E-02  2624   0.212E-01    0.502E-01
RMM:   2    -0.884955578037E+03    0.41925E-02   -0.50186E-02  3022   0.299E-01    0.787E-01
RMM:   3    -0.884956148867E+03   -0.57083E-03   -0.91591E-03  2369   0.652E-02    0.701E-01
RMM:   4    -0.884956748490E+03   -0.59962E-03   -0.23454E-02  3018   0.189E-01    0.396E-01
RMM:   5    -0.884957546467E+03   -0.79798E-03   -0.52581E-03  2527   0.590E-02    0.384E-01
RMM:   6    -0.884957311382E+03    0.23508E-03   -0.56283E-04  1884   0.462E-02    0.316E-01
RMM:   7    -0.884956566485E+03    0.74490E-03   -0.70989E-04  1950   0.444E-02    0.256E-01
RMM:   8    -0.884955933093E+03    0.63339E-03   -0.11114E-03  2202   0.411E-02    0.193E-01
RMM:   9    -0.884955651628E+03    0.28146E-03   -0.51367E-04  1909   0.357E-02    0.150E-01
RMM:  10    -0.884955458758E+03    0.19287E-03   -0.12177E-03  2290   0.444E-02    0.894E-02
RMM:  11    -0.884955472087E+03   -0.13329E-04   -0.11859E-04  1464   0.262E-02
   2 F= -.90599551E+03 E0= -.90599551E+03  d E =0.519291E-02  mag=    -0.0000
       N       E                     dE             d eps       ncg     rms          rms(c)
DAV:   1    -0.884955515763E+03   -0.57004E-04   -0.11921E-03  2312   0.497E-02    0.644E-02
RMM:   2    -0.884955482205E+03    0.33557E-04   -0.96330E-04  2100   0.460E-02
   3 F= -.90599551E+03 E0= -.90599551E+03  d E =0.519329E-02  mag=    -0.0000
       N       E                     dE             d eps       ncg     rms          rms(c)
DAV:   1    -0.884955727628E+03   -0.21187E-03   -0.19707E-02  2872   0.172E-01    0.864E-02
RMM:   2    -0.884955767751E+03   -0.40123E-04   -0.71609E-04  1935   0.524E-02
   4 F= -.90599564E+03 E0= -.90599564E+03  d E =-.124267E-03  mag=    -0.0000
