 vasp.5.3.5 31Mar14 (build May 27 2014 14:39:49) gamma-only                     
  
 executed on           LinuxIFORT date 2020.11.04  04:38:03
 running on   24 total cores
 distrk:  each k-point on   24 cores,    1 groups
 distr:  one band on NCORES_PER_BAND=   6 cores,    4 groups


--------------------------------------------------------------------------------------------------------


 INCAR:
 POTCAR:    PAW_PBE Ce 23Dec2003                  
 POTCAR:    PAW_PBE O 08Apr2002                   
 POTCAR:    PAW_PBE Pt 04Feb2005                  
 POTCAR:    PAW_PBE O 08Apr2002                   
 POTCAR:    PAW_PBE C 08Apr2002                   
 POTCAR:    PAW_PBE O 08Apr2002                   
 POTCAR:    PAW_PBE Ce 23Dec2003                  
   VRHFIN =Ce : [core= Kr 4d10]                                                 
   LEXCH  = PE                                                                  
   EATOM  =  1063.0861 eV,   78.1346 Ry                                         
                                                                                
   TITEL  = PAW_PBE Ce 23Dec2003                                                
   LULTRA =        F    use ultrasoft PP ?                                      
   IUNSCR =        1    unscreen: 0-lin 1-nonlin 2-no                           
   RPACOR =    1.800    partial core radius                                     
   POMASS =  140.115; ZVAL   =   12.000    mass and valenz                      
   RCORE  =    2.700    outmost cutoff radius                                   
   RWIGS  =    2.500; RWIGS  =    1.323    wigner-seitz radius (au A)           
   ENMAX  =  273.042; ENMIN  =  204.781 eV                                      
   RCLOC  =    1.810    cutoff for local pot                                    
   LCOR   =        T    correct aug charges                                     
   LPAW   =        T    paw PP                                                  
   EAUG   =  580.196                                                            
   DEXC   =    0.000                                                            
   RMAX   =    2.749    core radius for proj-oper                               
   RAUG   =    1.300    factor for augmentation sphere                          
   RDEP   =    2.810    radius for radial grids                                 
   RDEPT  =    2.162    core radius for aug-charge                              
                                                                                
   Atomic configuration                                                         
   14 entries                                                                   
     n  l   j            E        occ.                                          
     1  0  0.50    -40258.9816   2.0000                                         
     2  0  0.50     -6445.4884   2.0000                                         
     2  1  1.50     -5771.7470   6.0000                                         
     3  0  0.50     -1387.9739   2.0000                                         
     3  1  1.50     -1173.8158   6.0000                                         
     3  2  2.50      -869.9108  10.0000                                         
     4  0  0.50      -280.8706   2.0000                                         
     4  1  1.50      -210.9815   6.0000                                         
     4  2  2.50      -110.4558  10.0000                                         
     5  0  0.50       -40.5819   2.0000                                         
     6  0  0.50        -3.7444   2.0000                                         
     5  1  1.50       -23.2188   6.0000                                         
     5  2  2.50        -3.0598   1.0000                                         
     4  3  2.50        -5.3970   1.0000                                         
   Description                                                                  
     l       E           TYP  RCUT    TYP  RCUT                                 
     0    -40.5819164     23  1.500                                             
     0     -3.7443793     23  2.300                                             
     1    -23.2188445     23  2.000                                             
     1     40.8174780     23  2.300                                             
     2     -3.0597556     23  2.500                                             
     2     13.6058260     23  2.500                                             
     3     -5.3970469     23  2.700                                             
     3     -5.8505052     23  2.700                                             
  local pseudopotential read in
  partial core-charges read in
  partial kinetic energy density read in
  atomic valenz-charges read in
  non local Contribution for L=           0  read in
    real space projection operators read in
  non local Contribution for L=           0  read in
    real space projection operators read in
  non local Contribution for L=           1  read in
    real space projection operators read in
  non local Contribution for L=           1  read in
    real space projection operators read in
  non local Contribution for L=           2  read in
    real space projection operators read in
  non local Contribution for L=           2  read in
    real space projection operators read in
  non local Contribution for L=           3  read in
    real space projection operators read in
  non local Contribution for L=           3  read in
    real space projection operators read in
    PAW grid and wavefunctions read in
 
   number of l-projection  operators is LMAX  =           8
   number of lm-projection operators is LMMAX =          32
 
 POTCAR:    PAW_PBE O 08Apr2002                   
   VRHFIN =O: s2p4                                                              
   LEXCH  = PE                                                                  
   EATOM  =   432.3788 eV,   31.7789 Ry                                         
                                                                                
   TITEL  = PAW_PBE O 08Apr2002                                                 
   LULTRA =        F    use ultrasoft PP ?                                      
   IUNSCR =        1    unscreen: 0-lin 1-nonlin 2-no                           
   RPACOR =    1.200    partial core radius                                     
   POMASS =   16.000; ZVAL   =    6.000    mass and valenz                      
   RCORE  =    1.520    outmost cutoff radius                                   
   RWIGS  =    1.550; RWIGS  =    0.820    wigner-seitz radius (au A)           
   ENMAX  =  400.000; ENMIN  =  300.000 eV                                      
   ICORE  =        2    local potential                                         
   LCOR   =        T    correct aug charges                                     
   LPAW   =        T    paw PP                                                  
   EAUG   =  605.392                                                            
   DEXC   =    0.000                                                            
   RMAX   =    1.553    core radius for proj-oper                               
   RAUG   =    1.300    factor for augmentation sphere                          
   RDEP   =    1.550    radius for radial grids                                 
   RDEPT  =    1.329    core radius for aug-charge                              
                                                                                
   Atomic configuration                                                         
    4 entries                                                                   
     n  l   j            E        occ.                                          
     1  0  0.50      -514.6923   2.0000                                         
     2  0  0.50       -23.9615   2.0000                                         
     2  1  0.50        -9.0305   4.0000                                         
     3  2  1.50        -9.5241   0.0000                                         
   Description                                                                  
     l       E           TYP  RCUT    TYP  RCUT                                 
     0    -23.9615318     23  1.200                                             
     0     -9.5240782     23  1.200                                             
     1     -9.0304911     23  1.520                                             
     1      8.1634956     23  1.520                                             
     2     -9.5240782      7  1.500                                             
  local pseudopotential read in
  partial core-charges read in
  partial kinetic energy density read in
  kinetic energy density of atom read in
  atomic valenz-charges read in
  non local Contribution for L=           0  read in
    real space projection operators read in
  non local Contribution for L=           0  read in
    real space projection operators read in
  non local Contribution for L=           1  read in
    real space projection operators read in
  non local Contribution for L=           1  read in
    real space projection operators read in
    PAW grid and wavefunctions read in
 
   number of l-projection  operators is LMAX  =           4
   number of lm-projection operators is LMMAX =           8
 
 POTCAR:    PAW_PBE Pt 04Feb2005                  
   VRHFIN =Pt: s1d9                                                             
   LEXCH  = PE                                                                  
   EATOM  =   729.1176 eV,   53.5886 Ry                                         
                                                                                
   TITEL  = PAW_PBE Pt 04Feb2005                                                
   LULTRA =        F    use ultrasoft PP ?                                      
   IUNSCR =        1    unscreen: 0-lin 1-nonlin 2-no                           
   RPACOR =    2.330    partial core radius                                     
   POMASS =  195.080; ZVAL   =   10.000    mass and valenz                      
   RCORE  =    2.600    outmost cutoff radius                                   
   RWIGS  =    2.750; RWIGS  =    1.455    wigner-seitz radius (au A)           
   ENMAX  =  230.283; ENMIN  =  172.712 eV                                      
   ICORE  =        3    local potential                                         
   LCOR   =        T    correct aug charges                                     
   LPAW   =        T    paw PP                                                  
   EAUG   =  358.966                                                            
   DEXC   =    0.000                                                            
   RMAX   =    2.658    core radius for proj-oper                               
   RAUG   =    1.300    factor for augmentation sphere                          
   RDEP   =    2.761    radius for radial grids                                 
   RDEPT  =    2.203    core radius for aug-charge                              
                                                                                
   Atomic configuration                                                         
   16 entries                                                                   
     n  l   j            E        occ.                                          
     1  0  0.50    -78401.1885   2.0000                                         
     2  0  0.50    -13770.7750   2.0000                                         
     2  1  1.50    -11931.0468   6.0000                                         
     3  0  0.50     -3234.7234   2.0000                                         
     3  1  1.50     -2699.2216   6.0000                                         
     3  2  2.50     -2119.5714  10.0000                                         
     4  0  0.50      -695.1528   2.0000                                         
     4  1  1.50      -519.6034   6.0000                                         
     4  2  2.50      -306.6786  10.0000                                         
     4  3  3.50       -70.1041  14.0000                                         
     5  0  0.50      -101.7747   2.0000                                         
     5  1  1.50       -55.9873   6.0000                                         
     5  2  2.50        -6.1423   9.0000                                         
     6  0  0.50        -5.6573   1.0000                                         
     6  1  1.50        -6.8029   0.0000                                         
     5  3  2.50        -1.3606   0.0000                                         
   Description                                                                  
     l       E           TYP  RCUT    TYP  RCUT                                 
     2     -6.1423404     23  2.500                                             
     2     -7.5029230     23  2.500                                             
     0     -5.6573207     23  2.500                                             
     0      0.7416693     23  2.500                                             
     1     -2.7211652     23  2.600                                             
     1     20.4087390     23  2.600                                             
     3     -1.3605826     23  2.500                                             
  local pseudopotential read in
  partial core-charges read in
  partial kinetic energy density read in
  atomic valenz-charges read in
  non local Contribution for L=           2  read in
    real space projection operators read in
  non local Contribution for L=           2  read in
    real space projection operators read in
  non local Contribution for L=           0  read in
    real space projection operators read in
  non local Contribution for L=           0  read in
    real space projection operators read in
  non local Contribution for L=           1  read in
    real space projection operators read in
  non local Contribution for L=           1  read in
    real space projection operators read in
    PAW grid and wavefunctions read in
 
   number of l-projection  operators is LMAX  =           6
   number of lm-projection operators is LMMAX =          18
 
 POTCAR:    PAW_PBE O 08Apr2002                   
   VRHFIN =O: s2p4                                                              
   LEXCH  = PE                                                                  
   EATOM  =   432.3788 eV,   31.7789 Ry                                         
                                                                                
   TITEL  = PAW_PBE O 08Apr2002                                                 
   LULTRA =        F    use ultrasoft PP ?                                      
   IUNSCR =        1    unscreen: 0-lin 1-nonlin 2-no                           
   RPACOR =    1.200    partial core radius                                     
   POMASS =   16.000; ZVAL   =    6.000    mass and valenz                      
   RCORE  =    1.520    outmost cutoff radius                                   
   RWIGS  =    1.550; RWIGS  =    0.820    wigner-seitz radius (au A)           
   ENMAX  =  400.000; ENMIN  =  300.000 eV                                      
   ICORE  =        2    local potential                                         
   LCOR   =        T    correct aug charges                                     
   LPAW   =        T    paw PP                                                  
   EAUG   =  605.392                                                            
   DEXC   =    0.000                                                            
   RMAX   =    1.553    core radius for proj-oper                               
   RAUG   =    1.300    factor for augmentation sphere                          
   RDEP   =    1.550    radius for radial grids                                 
   RDEPT  =    1.329    core radius for aug-charge                              
                                                                                
   Atomic configuration                                                         
    4 entries                                                                   
     n  l   j            E        occ.                                          
     1  0  0.50      -514.6923   2.0000                                         
     2  0  0.50       -23.9615   2.0000                                         
     2  1  0.50        -9.0305   4.0000                                         
     3  2  1.50        -9.5241   0.0000                                         
   Description                                                                  
     l       E           TYP  RCUT    TYP  RCUT                                 
     0    -23.9615318     23  1.200                                             
     0     -9.5240782     23  1.200                                             
     1     -9.0304911     23  1.520                                             
     1      8.1634956     23  1.520                                             
     2     -9.5240782      7  1.500                                             
  local pseudopotential read in
  partial core-charges read in
  partial kinetic energy density read in
  kinetic energy density of atom read in
  atomic valenz-charges read in
  non local Contribution for L=           0  read in
    real space projection operators read in
  non local Contribution for L=           0  read in
    real space projection operators read in
  non local Contribution for L=           1  read in
    real space projection operators read in
  non local Contribution for L=           1  read in
    real space projection operators read in
    PAW grid and wavefunctions read in
 
   number of l-projection  operators is LMAX  =           4
   number of lm-projection operators is LMMAX =           8
 
 POTCAR:    PAW_PBE C 08Apr2002                   
   VRHFIN =C: s2p2                                                              
   LEXCH  = PE                                                                  
   EATOM  =   147.1560 eV,   10.8157 Ry                                         
                                                                                
   TITEL  = PAW_PBE C 08Apr2002                                                 
   LULTRA =        F    use ultrasoft PP ?                                      
   IUNSCR =        1    unscreen: 0-lin 1-nonlin 2-no                           
   RPACOR =    1.200    partial core radius                                     
   POMASS =   12.011; ZVAL   =    4.000    mass and valenz                      
   RCORE  =    1.500    outmost cutoff radius                                   
   RWIGS  =    1.630; RWIGS  =    0.863    wigner-seitz radius (au A)           
   ENMAX  =  400.000; ENMIN  =  300.000 eV                                      
   ICORE  =        2    local potential                                         
   LCOR   =        T    correct aug charges                                     
   LPAW   =        T    paw PP                                                  
   EAUG   =  644.873                                                            
   DEXC   =    0.000                                                            
   RMAX   =    1.529    core radius for proj-oper                               
   RAUG   =    1.300    factor for augmentation sphere                          
   RDEP   =    1.501    radius for radial grids                                 
   RDEPT  =    1.300    core radius for aug-charge                              
                                                                                
   Atomic configuration                                                         
    4 entries                                                                   
     n  l   j            E        occ.                                          
     1  0  0.50      -273.3789   2.0000                                         
     2  0  0.50       -13.7508   2.0000                                         
     2  1  0.50        -5.2854   2.0000                                         
     3  2  1.50        -5.4423   0.0000                                         
   Description                                                                  
     l       E           TYP  RCUT    TYP  RCUT                                 
     0    -13.7508458     23  1.200                                             
     0     -8.2022199     23  1.200                                             
     1     -5.2854383     23  1.500                                             
     1     34.0145650     23  1.500                                             
     2     -5.4423304      7  1.500                                             
  local pseudopotential read in
  partial core-charges read in
  partial kinetic energy density read in
  atomic valenz-charges read in
  non local Contribution for L=           0  read in
    real space projection operators read in
  non local Contribution for L=           0  read in
    real space projection operators read in
  non local Contribution for L=           1  read in
    real space projection operators read in
  non local Contribution for L=           1  read in
    real space projection operators read in
    PAW grid and wavefunctions read in
 
   number of l-projection  operators is LMAX  =           4
   number of lm-projection operators is LMMAX =           8
 
 POTCAR:    PAW_PBE O 08Apr2002                   
   VRHFIN =O: s2p4                                                              
   LEXCH  = PE                                                                  
   EATOM  =   432.3788 eV,   31.7789 Ry                                         
                                                                                
   TITEL  = PAW_PBE O 08Apr2002                                                 
   LULTRA =        F    use ultrasoft PP ?                                      
   IUNSCR =        1    unscreen: 0-lin 1-nonlin 2-no                           
   RPACOR =    1.200    partial core radius                                     
   POMASS =   16.000; ZVAL   =    6.000    mass and valenz                      
   RCORE  =    1.520    outmost cutoff radius                                   
   RWIGS  =    1.550; RWIGS  =    0.820    wigner-seitz radius (au A)           
   ENMAX  =  400.000; ENMIN  =  300.000 eV                                      
   ICORE  =        2    local potential                                         
   LCOR   =        T    correct aug charges                                     
   LPAW   =        T    paw PP                                                  
   EAUG   =  605.392                                                            
   DEXC   =    0.000                                                            
   RMAX   =    1.553    core radius for proj-oper                               
   RAUG   =    1.300    factor for augmentation sphere                          
   RDEP   =    1.550    radius for radial grids                                 
   RDEPT  =    1.329    core radius for aug-charge                              
                                                                                
   Atomic configuration                                                         
    4 entries                                                                   
     n  l   j            E        occ.                                          
     1  0  0.50      -514.6923   2.0000                                         
     2  0  0.50       -23.9615   2.0000                                         
     2  1  0.50        -9.0305   4.0000                                         
     3  2  1.50        -9.5241   0.0000                                         
   Description                                                                  
     l       E           TYP  RCUT    TYP  RCUT                                 
     0    -23.9615318     23  1.200                                             
     0     -9.5240782     23  1.200                                             
     1     -9.0304911     23  1.520                                             
     1      8.1634956     23  1.520                                             
     2     -9.5240782      7  1.500                                             
  local pseudopotential read in
  partial core-charges read in
  partial kinetic energy density read in
  kinetic energy density of atom read in
  atomic valenz-charges read in
  non local Contribution for L=           0  read in
    real space projection operators read in
  non local Contribution for L=           0  read in
    real space projection operators read in
  non local Contribution for L=           1  read in
    real space projection operators read in
  non local Contribution for L=           1  read in
    real space projection operators read in
    PAW grid and wavefunctions read in
 
   number of l-projection  operators is LMAX  =           4
   number of lm-projection operators is LMMAX =           8
 
 Optimization of the real space projectors (new method)

 maximal supplied QI-value         = 13.98
 optimisation between [QCUT,QGAM] = [ 10.21, 20.42] = [ 29.18,116.73] Ry 
 Optimized for a Real-space Cutoff    1.65 Angstroem

   l    n(q)    QCUT    max X(q) W(low)/X(q) W(high)/X(q)  e(spline) 
   0     10    10.208     8.553    0.18E-04    0.75E-05    0.12E-06
   0     10    10.208     8.106    0.26E-04    0.16E-04    0.24E-06
   1     10    10.208     4.160    0.93E-05    0.96E-06    0.75E-07
   1     10    10.208     3.597    0.23E-04    0.26E-04    0.15E-06
   2      9    10.208     8.183    0.11E-03    0.28E-03    0.51E-06
   2      9    10.208     6.077    0.74E-04    0.19E-03    0.37E-06
   3      9    10.208   116.013    0.19E-03    0.98E-05    0.18E-06
   3      9    10.208   108.937    0.19E-03    0.10E-04    0.18E-06
 Optimization of the real space projectors (new method)

 maximal supplied QI-value         = 24.76
 optimisation between [QCUT,QGAM] = [ 10.15, 20.30] = [ 28.85,115.39] Ry 
 Optimized for a Real-space Cutoff    1.51 Angstroem

   l    n(q)    QCUT    max X(q) W(low)/X(q) W(high)/X(q)  e(spline) 
   0      9    10.150    20.381    0.17E-03    0.18E-03    0.41E-06
   0      9    10.150    15.268    0.18E-03    0.20E-03    0.43E-06
   1      9    10.150     5.964    0.16E-03    0.20E-03    0.36E-06
   1      9    10.150     5.382    0.13E-03    0.16E-03    0.33E-06
 Optimization of the real space projectors (new method)

 maximal supplied QI-value         = 14.36
 optimisation between [QCUT,QGAM] = [ 10.20, 20.39] = [ 29.12,116.47] Ry 
 Optimized for a Real-space Cutoff    1.55 Angstroem

   l    n(q)    QCUT    max X(q) W(low)/X(q) W(high)/X(q)  e(spline) 
   2      9    10.197    66.195    0.14E-03    0.26E-03    0.16E-06
   2      9    10.197    64.643    0.14E-03    0.26E-03    0.16E-06
   0      9    10.197    95.520    0.52E-04    0.23E-04    0.61E-07
   0      9    10.197    63.403    0.50E-04    0.22E-04    0.58E-07
   1      9    10.197    19.961    0.18E-03    0.80E-04    0.90E-07
   1      9    10.197    13.289    0.15E-03    0.68E-04    0.78E-07
 Optimization of the real space projectors (new method)

 maximal supplied QI-value         = 24.76
 optimisation between [QCUT,QGAM] = [ 10.15, 20.30] = [ 28.85,115.39] Ry 
 Optimized for a Real-space Cutoff    1.51 Angstroem

   l    n(q)    QCUT    max X(q) W(low)/X(q) W(high)/X(q)  e(spline) 
   0      9    10.150    20.381    0.17E-03    0.18E-03    0.41E-06
   0      9    10.150    15.268    0.18E-03    0.20E-03    0.43E-06
   1      9    10.150     5.964    0.16E-03    0.20E-03    0.36E-06
   1      9    10.150     5.382    0.13E-03    0.16E-03    0.33E-06
 Optimization of the real space projectors (new method)

 maximal supplied QI-value         = 25.13
 optimisation between [QCUT,QGAM] = [ 10.05, 20.36] = [ 28.30,116.06] Ry 
 Optimized for a Real-space Cutoff    1.51 Angstroem

   l    n(q)    QCUT    max X(q) W(low)/X(q) W(high)/X(q)  e(spline) 
   0      9    10.053   115.676    0.19E-03    0.21E-03    0.38E-06
   0      9    10.053    87.132    0.19E-03    0.21E-03    0.38E-06
   1      9    10.053     4.429    0.87E-04    0.11E-03    0.39E-06
   1      9    10.053     2.733    0.59E-04    0.62E-04    0.43E-06
 Optimization of the real space projectors (new method)

 maximal supplied QI-value         = 24.76
 optimisation between [QCUT,QGAM] = [ 10.15, 20.30] = [ 28.85,115.39] Ry 
 Optimized for a Real-space Cutoff    1.51 Angstroem

   l    n(q)    QCUT    max X(q) W(low)/X(q) W(high)/X(q)  e(spline) 
   0      9    10.150    20.381    0.17E-03    0.18E-03    0.41E-06
   0      9    10.150    15.268    0.18E-03    0.20E-03    0.43E-06
   1      9    10.150     5.964    0.16E-03    0.20E-03    0.36E-06
   1      9    10.150     5.382    0.13E-03    0.16E-03    0.33E-06
  PAW_PBE Ce 23Dec2003                  :
 energy of atom  1       EATOM=-1063.0861
 kinetic energy error for atom=    0.0451 (will be added to EATOM!!)
  PAW_PBE O 08Apr2002                   :
 energy of atom  2       EATOM= -432.3788
 kinetic energy error for atom=    0.1156 (will be added to EATOM!!)
  PAW_PBE Pt 04Feb2005                  :
 energy of atom  3       EATOM= -729.1176
 kinetic energy error for atom=    0.0056 (will be added to EATOM!!)
  PAW_PBE O 08Apr2002                   :
 energy of atom  4       EATOM= -432.3788
 kinetic energy error for atom=    0.1156 (will be added to EATOM!!)
  PAW_PBE C 08Apr2002                   :
 energy of atom  5       EATOM= -147.1560
 kinetic energy error for atom=    0.0288 (will be added to EATOM!!)
  PAW_PBE O 08Apr2002                   :
 energy of atom  6       EATOM= -432.3788
 kinetic energy error for atom=    0.1156 (will be added to EATOM!!)
 
 
 POSCAR: CeO2-110-l3-p23:                        
  positions in direct lattice
  velocities in cartesian coordinates
 exchange correlation table for  LEXCH =        8
   RHO(1)=    0.500       N(1)  =     2000
   RHO(2)=  100.500       N(2)  =     4000

 VTST: version 3.1, (03/28/14)

 CHAIN: initializing optimizer
 
 OPT: Using VASP Conjugate-Gradient optimizer
 CHAIN: Read ICHAIN            0
 
 POSCAR: CeO2-110-l3-p23:                        
  positions in direct lattice
  velocities in cartesian coordinates
 


--------------------------------------------------------------------------------------------------------


 ion  position               nearest neighbor table
   1  0.771  0.167  0.000-  36 2.38  40 2.38  39 2.38  44 2.38  52 2.38  54 2.38
   2  0.771  0.500  0.000-  36 2.38  38 2.38  40 2.38  46 2.38  58 2.38  59 2.38
   3  0.271  0.167  0.000-  41 2.38  45 2.38  43 2.38  37 2.38  50 2.38  51 2.38
   4  0.771  0.833  0.000-  38 2.38  46 2.38  44 2.38  39 2.38  49 2.38  53 2.38
   5  0.271  0.500  0.000-  41 2.38  42 2.38  45 2.38  47 2.38  56 2.38  57 2.38
   6  0.271  0.833  0.000-  42 2.38  47 2.38  43 2.38  37 2.38  48 2.38  55 2.38
   7  0.521  0.000  0.079-  66 2.37  60 2.37  50 2.38  54 2.38  48 2.38  49 2.38  43 2.38  44 2.38

   8  0.521  0.667  0.079-  62 2.37  49 2.38  48 2.38  59 2.38  56 2.38  42 2.38  38 2.38  61 2.38

   9  0.021  0.000  0.079-  64 2.37  52 2.38  53 2.38  55 2.38  51 2.38  39 2.38  37 2.38  65 2.39

  10  0.521  0.333  0.079-  70 2.36  68 2.37  50 2.38  54 2.38  56 2.38  59 2.38  36 2.38  45 2.38

  11  0.021  0.333  0.079-  51 2.38  52 2.38  57 2.38  58 2.38  40 2.38  41 2.38  69 2.38  71 2.39

  12  0.021  0.667  0.079-  63 2.36  55 2.38  53 2.38  58 2.38  57 2.38  47 2.38  46 2.38  67 2.38

  13  0.771  0.168  0.158-  72 2.34  70 2.37  69 2.37  60 2.38  54 2.39  52 2.39  79 2.39  65 2.39

  14  0.771  0.833  0.158-  62 2.35  73 2.37  60 2.37  63 2.37  65 2.37  49 2.39  53 2.39  83 2.39

  15  0.271  0.167  0.158-  78 2.36  66 2.37  64 2.37  82 2.37  68 2.37  51 2.38  71 2.38  50 2.39

  16  0.772  0.500  0.157-  77 2.34  75 2.35  58 2.36  59 2.37  69 2.37  63 2.38  70 2.39  62 2.40

  17  0.270  0.500  0.158-  67 2.36  71 2.37  80 2.37  61 2.37  68 2.37  81 2.39  57 2.39  56 2.40

  18  0.271  0.834  0.157-  74 2.34  76 2.35  64 2.37  48 2.38  55 2.38  61 2.38  66 2.39  67 2.39

  19  0.022  0.666  0.234-  83 2.34  67 2.34  81 2.35  75 2.36  63 2.37  76 2.38  86 2.41  91 2.49

  20  0.520  0.669  0.233-  92 2.30  61 2.33  62 2.35  89 2.36  77 2.38  74 2.38  73 2.41  80 2.42

  21  0.023  0.335  0.236-  71 2.35  81 2.36  79 2.37  93 2.38  82 2.38  69 2.39  94 2.40  75 2.40

  22  0.022  0.999  0.234-  65 2.32  85 2.34  64 2.34  76 2.37  95 2.37  82 2.38  79 2.41  83 2.43

  23  0.523  0.003  0.234-  72 2.34  60 2.35  73 2.36  66 2.36  74 2.37  78 2.38  90 2.38  88 2.47

  24  0.517  0.334  0.233-  84 2.30  68 2.32  80 2.34  70 2.35  78 2.36  77 2.42  72 2.43  87 2.48
                           107 3.26
  25  0.765  0.502  0.311- 105 2.30  84 2.32  89 2.33  77 2.34  91 2.34  75 2.38  93 2.38 108 3.04

  26  0.777  0.169  0.315- 102 2.29  79 2.35  88 2.38  85 2.40  93 2.42 103 2.43  72 2.45  84 2.50
                           107 3.13 108 3.33
  27  0.272  0.503  0.320- 109 2.20  86 2.41  87 2.41  94 2.41  92 2.44  80 2.47 106 2.47  81 2.48

  28  0.275  0.835  0.315-  92 2.32  90 2.34  86 2.34  98 2.35  95 2.38  97 2.39  74 2.41  76 2.44

  29  0.268  0.166  0.317- 100 2.30  94 2.33  87 2.35  95 2.36  82 2.41  90 2.42  78 2.45  99 2.49
                           107 3.23
  30  0.772  0.833  0.317-  96 2.32 101 2.35  85 2.36  89 2.38  83 2.40  88 2.41  73 2.42  91 2.48

  31  0.024  0.000  0.385- 102 2.21  95 2.25 100 2.29  85 2.30 101 2.32  97 2.33
  32  0.521  0.989  0.387-  98 2.22  88 2.24  96 2.26  90 2.27  99 2.28 107 3.21
  33  0.030  0.682  0.387- 106 2.20  97 2.21  91 2.23  86 2.24 101 2.25
  34  0.522  0.666  0.386- 109 2.12  89 2.30  92 2.32  96 2.35  98 2.35 105 2.41
  35  0.020  0.324  0.391- 104 2.13  93 2.31 102 2.32  94 2.35 106 2.35 100 2.37
  36  0.646  0.333  0.000-   1 2.38   2 2.38  10 2.38
  37  0.146  0.000  0.000-   3 2.38   6 2.38   9 2.38
  38  0.646  0.667  0.000-   4 2.38   2 2.38   8 2.38
  39  0.896  0.000  0.000-   1 2.38   4 2.38   9 2.38
  40  0.896  0.333  0.000-   1 2.38   2 2.38  11 2.38
  41  0.146  0.333  0.000-   3 2.38   5 2.38  11 2.38
  42  0.396  0.667  0.000-   6 2.38   5 2.38   8 2.38
  43  0.396  0.000  0.000-   3 2.38   6 2.38   7 2.38
  44  0.646  0.000  0.000-   1 2.38   4 2.38   7 2.38
  45  0.396  0.333  0.000-   3 2.38   5 2.38  10 2.38
  46  0.896  0.667  0.000-   4 2.38   2 2.38  12 2.38
  47  0.146  0.667  0.000-   6 2.38   5 2.38  12 2.38
  48  0.396  0.833  0.079-  18 2.38   8 2.38   7 2.38   6 2.38
  49  0.646  0.833  0.079-   8 2.38   7 2.38   4 2.38  14 2.39
  50  0.396  0.167  0.079-  10 2.38   7 2.38   3 2.38  15 2.39
  51  0.146  0.167  0.079-  11 2.38   9 2.38   3 2.38  15 2.38
  52  0.896  0.167  0.079-  11 2.38   9 2.38   1 2.38  13 2.39
  53  0.896  0.833  0.079-  12 2.38   9 2.38   4 2.38  14 2.39
  54  0.646  0.167  0.079-  10 2.38   7 2.38   1 2.38  13 2.39
  55  0.146  0.833  0.079-  12 2.38   9 2.38   6 2.38  18 2.38
  56  0.396  0.500  0.079-   8 2.38  10 2.38   5 2.38  17 2.40
  57  0.146  0.500  0.079-  11 2.38  12 2.38   5 2.38  17 2.39
  58  0.896  0.500  0.079-  16 2.36  12 2.38  11 2.38   2 2.38
  59  0.646  0.500  0.079-  16 2.37  10 2.38   8 2.38   2 2.38
  60  0.647  0.000  0.157-  23 2.35   7 2.37  14 2.37  13 2.38
  61  0.395  0.666  0.157-  20 2.33  17 2.37   8 2.38  18 2.38
  62  0.647  0.669  0.157-  20 2.35  14 2.35   8 2.37  16 2.40
  63  0.896  0.667  0.157-  12 2.36  19 2.37  14 2.37  16 2.38
  64  0.146  0.000  0.157-  22 2.34   9 2.37  15 2.37  18 2.37
  65  0.896  1.000  0.158-  22 2.32  14 2.37   9 2.39  13 2.39
  66  0.396  0.002  0.157-  23 2.36  15 2.37   7 2.37  18 2.39
  67  0.146  0.666  0.157-  19 2.34  17 2.36  12 2.38  18 2.39
  68  0.394  0.334  0.156-  24 2.32  17 2.37  15 2.37  10 2.37
  69  0.896  0.334  0.157-  13 2.37  16 2.37  11 2.38  21 2.39
  70  0.645  0.333  0.157-  24 2.35  10 2.36  13 2.37  16 2.39
  71  0.146  0.334  0.158-  21 2.35  17 2.37  15 2.38  11 2.39
  72  0.647  0.165  0.235-  23 2.34  13 2.34  24 2.43  26 2.45
  73  0.647  0.838  0.236-  23 2.36  14 2.37  20 2.41  30 2.42
  74  0.397  0.837  0.234-  18 2.34  23 2.37  20 2.38  28 2.41
  75  0.895  0.503  0.234-  16 2.35  19 2.36  25 2.38  21 2.40
  76  0.146  0.833  0.234-  18 2.35  22 2.37  19 2.38  28 2.44
  77  0.645  0.502  0.233-  25 2.34  16 2.34  20 2.38  24 2.42
  78  0.395  0.167  0.235-  24 2.36  15 2.36  23 2.38  29 2.45
  79  0.897  0.170  0.236-  26 2.35  21 2.37  13 2.39  22 2.41
  80  0.394  0.498  0.237-  24 2.34  17 2.37  20 2.42  27 2.47
  81  0.145  0.502  0.237-  19 2.35  21 2.36  17 2.39  27 2.48
  82  0.145  0.167  0.236-  15 2.37  22 2.38  21 2.38  29 2.41
  83  0.896  0.828  0.237-  19 2.34  14 2.39  30 2.40  22 2.43
  84  0.641  0.340  0.307- 107 2.03  24 2.30  25 2.32  26 2.50 108 2.66
  85  0.897  0.997  0.311-  31 2.30  22 2.34  30 2.36  26 2.40
  86  0.149  0.673  0.314-  33 2.24  28 2.34  27 2.41  19 2.41
  87  0.392  0.330  0.317- 107 2.00  29 2.35  27 2.41  24 2.48
  88  0.649  0.004  0.317-  32 2.24  26 2.38  30 2.41  23 2.47
  89  0.645  0.668  0.311-  34 2.30  25 2.33  20 2.36  30 2.38
  90  0.398  0.999  0.313-  32 2.27  28 2.34  23 2.38  29 2.42
  91  0.899  0.658  0.319-  33 2.23  25 2.34  30 2.48  19 2.49
  92  0.398  0.673  0.309-  20 2.30  28 2.32  34 2.32  27 2.44
  93  0.899  0.341  0.315-  35 2.31  21 2.38  25 2.38  26 2.42
  94  0.149  0.331  0.315-  29 2.33  35 2.35  21 2.40  27 2.41
  95  0.147  0.999  0.312-  31 2.25  29 2.36  22 2.37  28 2.38
  96  0.642  0.833  0.391-  32 2.26  30 2.32  34 2.35
  97  0.145  0.837  0.392-  33 2.21  31 2.33  28 2.39
  98  0.404  0.834  0.391-  32 2.22  28 2.35  34 2.35
  99  0.410  0.154  0.395- 107 1.98  32 2.28  29 2.49
 100  0.146  0.159  0.392-  31 2.29  29 2.30  35 2.37
 101  0.905  0.836  0.391-  33 2.25  31 2.32  30 2.35
 102  0.907  0.155  0.387-  31 2.21  26 2.29  35 2.32
 103  0.667  0.185  0.400- 107 2.02 108 2.09  26 2.43
 104  0.874  0.399  0.436- 108 1.99  35 2.13
 105  0.684  0.529  0.396- 108 2.03  25 2.30  34 2.41
 106  0.108  0.508  0.389-  33 2.20  35 2.35  27 2.47
 107  0.527  0.259  0.360-  99 1.98  87 2.00 103 2.02  84 2.03 108 2.62  26 3.13  32 3.21  29 3.23
                            24 3.26
 108  0.706  0.359  0.411- 104 1.99 105 2.03 103 2.09 107 2.62  84 2.66  25 3.04  26 3.33
 109  0.388  0.536  0.391-  34 2.12  27 2.20
 110  0.418  0.403  0.503- 111 1.18
 111  0.475  0.319  0.510- 110 1.18 112 1.18
 112  0.531  0.235  0.519- 111 1.18
 

IMPORTANT INFORMATION: All symmetrisations will be switched off!
NOSYMM: (Re-)initialisation of all symmetry stuff for point group C_1.

 
 
 KPOINTS: CeO2-111-3x3-9layers         ! Comment  

Automatic generation of k-mesh.
Space group operators:
 irot       det(A)        alpha          n_x          n_y          n_z        tau_x        tau_y        tau_z
    1     1.000000     0.000000     1.000000     0.000000     0.000000     0.000000     0.000000     0.000000
 
 Subroutine IBZKPT returns following result:
 ===========================================
 
 Found      1 irreducible k-points:
 
 Following reciprocal coordinates:
            Coordinates               Weight
  0.000000  0.000000  0.000000      1.000000
 
 Following cartesian coordinates:
            Coordinates               Weight
  0.000000  0.000000  0.000000      1.000000
 


--------------------------------------------------------------------------------------------------------




 Dimension of arrays:
   k-points           NKPTS =      1   k-points in BZ     NKDIM =      1   number of bands    NBANDS=    588
   number of dos      NEDOS =    301   number of ions     NIONS =    112
   non local maximal  LDIM  =      8   non local SUM 2l+1 LMDIM =     32
   total plane-waves  NPLWV = 933120
   max r-space proj   IRMAX =   5592   max aug-charges    IRDMAX= 143303
   dimension x,y,z NGX =    72 NGY =   80 NGZ =  162
   dimension x,y,z NGXF=   144 NGYF=  160 NGZF=  324
   support grid    NGXF=   288 NGYF=  320 NGZF=  648
   ions per type =              35  71   2   2   1   1
 NGX,Y,Z   is equivalent  to a cutoff of  10.90, 11.42, 10.90 a.u.
 NGXF,Y,Z  is equivalent  to a cutoff of  21.80, 22.84, 21.80 a.u.


 I would recommend the setting:
   dimension x,y,z NGX =    72 NGY =   76 NGZ =  161
 SYSTEM =  unknown system                          
 POSCAR =  CeO2-110-l3-p23:                        

 Startparameter for this run:
   NWRITE =      2    write-flag & timer
   PREC   = accura    normal or accurate (medium, high low for compatibility)
   ISTART =      1    job   : 0-new  1-cont  2-samecut
   ICHARG =      0    charge: 1-file 2-atom 10-const
   ISPIN  =      2    spin polarized calculation?
   LNONCOLLINEAR =      F non collinear calculations
   LSORBIT =      F    spin-orbit coupling
   INIWAV =      1    electr: 0-lowe 1-rand  2-diag
   LASPH  =      T    aspherical Exc in radial PAW
   METAGGA=      F    non-selfconsistent MetaGGA calc.

 Electronic Relaxation 1
   ENCUT  =  400.0 eV  29.40 Ry    5.42 a.u.  17.91 18.99 40.29*2*pi/ulx,y,z
   ENINI  =  400.0     initial cutoff
   ENAUG  =  644.9 eV  augmentation charge cutoff
   NELM   =    100;   NELMIN=  2; NELMDL=  0     # of ELM steps 
   EDIFF  = 0.1E-03   stopping-criterion for ELM
   LREAL  =      T    real-space projection
   NLSPLINE    = F    spline interpolate recip. space projectors
   LCOMPAT=      F    compatible to vasp.4.4
   GGA_COMPAT  = T    GGA compatible to vasp.4.4-vasp.4.6
   LMAXPAW     = -100 max onsite density
   LMAXMIX     =    6 max onsite mixed and CHGCAR
   VOSKOWN=      0    Vosko Wilk Nusair interpolation
   ROPT   =   -0.00025  -0.00025  -0.00025  -0.00025
   ROPT   =   -0.00025  -0.00025
 Ionic relaxation
   EDIFFG = -.5E-01   stopping-criterion for IOM
   NSW    =    100    number of steps for IOM
   NBLOCK =      1;   KBLOCK =    100    inner block; outer block 
   IBRION =      2    ionic relax: 0-MD 1-quasi-New 2-CG
   NFREE  =      1    steps in history (QN), initial steepest desc. (CG)
   ISIF   =      2    stress and relaxation
   IWAVPR =     11    prediction:  0-non 1-charg 2-wave 3-comb
   ISYM   =      0    0-nonsym 1-usesym 2-fastsym
   LCORR  =      T    Harris-Foulkes like correction to forces

   POTIM  = 0.1000    time-step for ionic-motion
   TEIN   =    0.0    initial temperature
   TEBEG  =    0.0;   TEEND  =   0.0 temperature during run
   SMASS  =  -3.00    Nose mass-parameter (am)
   estimated Nose-frequenzy (Omega)   =  0.10E-29 period in steps =****** mass=  -0.276E-26a.u.
   SCALEE = 1.0000    scale energy and forces
   NPACO  =    256;   APACO  = 16.0  distance and # of slots for P.C.
   PSTRESS=    0.0 pullay stress

  Mass of Ions in am
   POMASS = 140.12 16.00195.08 16.00 12.01 16.00
  Ionic Valenz
   ZVAL   =  12.00  6.00 10.00  6.00  4.00  6.00
  Atomic Wigner-Seitz radii
   RWIGS  =  -1.00 -1.00 -1.00 -1.00 -1.00 -1.00
  virtual crystal weights 
   VCA    =   1.00  1.00  1.00  1.00  1.00  1.00
   NELECT =     888.0000    total number of electrons
   NUPDOWN=      -1.0000    fix difference up-down

 DOS related values:
   EMIN   =  10.00;   EMAX   =-10.00  energy-range for DOS
   EFERMI =   0.00
   ISMEAR =     0;   SIGMA  =   0.05  broadening in eV -4-tet -1-fermi 0-gaus

 Electronic relaxation 2 (details)
   IALGO  =     68    algorithm
   LDIAG  =      T    sub-space diagonalisation (order eigenvalues)
   LSUBROT=      F    optimize rotation matrix (better conditioning)
   TURBO    =      0    0=normal 1=particle mesh
   IRESTART =      0    0=no restart 2=restart with 2 vectors
   NREBOOT  =      0    no. of reboots
   NMIN     =      0    reboot dimension
   EREF     =   0.00    reference energy to select bands
   IMIX   =      4    mixing-type and parameters
     AMIX     =   0.20;   BMIX     =  0.00
     AMIX_MAG =   0.80;   BMIX_MAG =  0.00
     AMIN     =   0.10
     WC   =   100.;   INIMIX=   1;  MIXPRE=   1;  MAXMIX= -45

 Intra band minimization:
   WEIMIN = 0.0010     energy-eigenvalue tresh-hold
   EBREAK =  0.43E-07  absolut break condition
   DEPER  =   0.30     relativ break condition  

   TIME   =   0.40     timestep for ELM

  volume/ion in A,a.u.               =      28.21       190.35
  Fermi-wavevector in a.u.,A,eV,Ry     =   1.072400  2.026543 15.647281  1.150043
  Thomas-Fermi vector in A             =   2.208169
 
 Write flags
   LWAVE  =      T    write WAVECAR
   LCHARG =      T    write CHGCAR
   LVTOT  =      F    write LOCPOT, total local potential
   LVHAR  =      F    write LOCPOT, Hartree potential only
   LELF   =      F    write electronic localiz. function (ELF)
   LORBIT =     11    0 simple, 1 ext, 2 COOP (PROOUT)


 Dipole corrections
   LMONO  =      F    monopole corrections only (constant potential shift)
   LDIPOL =      T    correct potential (dipole corrections)
   IDIPOL =      3    1-x, 2-y, 3-z, 4-all directions 
   EPSILON=  1.0000000 bulk dielectric constant

 LDA+U is selected, type is set to LDAUTYPE =  2
   angular momentum for each species LDAUL =     3   -1   -1   -1   -1   -1
   U (eV)           for each species LDAUU =   4.5  0.0  0.0  0.0  0.0  0.0
   J (eV)           for each species LDAUJ =   0.0  0.0  0.0  0.0  0.0  0.0
 Exchange correlation treatment:
   GGA     =    --    GGA type
   LEXCH   =     8    internal setting for exchange type
   VOSKOWN=      0    Vosko Wilk Nusair interpolation
   LHFCALC =     F    Hartree Fock is set to
   LHFONE  =     F    Hartree Fock one center treatment
   AEXX    =    0.0000 exact exchange contribution

 Linear response parameters
   LEPSILON=     F    determine dielectric tensor
   LRPA    =     F    only Hartree local field effects (RPA)
   LNABLA  =     F    use nabla operator in PAW spheres
   LVEL    =     F    velocity operator in full k-point grid
   LINTERFAST=   F  fast interpolation
   KINTER  =     0    interpolate to denser k-point grid
   CSHIFT  =0.1000    complex shift for real part using Kramers Kronig
   OMEGAMAX=  -1.0    maximum frequency
   DEG_THRESHOLD= 0.2000000E-02 threshold for treating states as degnerate
   RTIME   =    0.100 relaxation time in fs

 Orbital magnetization related:
   ORBITALMAG=     F  switch on orbital magnetization
   LCHIMAG   =     F  perturbation theory with respect to B field
   DQ        =  0.001000  dq finite difference perturbation B field



--------------------------------------------------------------------------------------------------------


 conjugate gradient relaxation of ions
   using selective dynamics as specified on POSCAR
 charge density and potential will be updated during run
 spin polarized calculation
 RMM-DIIS sequential band-by-band and
  variant of blocked Davidson during initial phase
 perform sub-space diagonalisation
    before iterative eigenvector-optimisation
 modified Broyden-mixing scheme, WC =      100.0
 initial mixing is a Kerker type mixing with AMIX =  0.2000 and BMIX =      0.0010
 Hartree-type preconditioning will be used
 using additional bands          144
 real space projection scheme for non local part
 use partial core corrections
 calculate Harris-corrections to forces 
   (improved forces if not selfconsistent)
 use gradient corrections 
 use of overlap-Matrix (Vanderbilt PP)
 Gauss-broadening in eV      SIGMA  =   0.05


--------------------------------------------------------------------------------------------------------


  energy-cutoff  :      400.00
  volume of cell :     3159.12
      direct lattice vectors                 reciprocal lattice vectors
    10.980000000  0.000000000  0.000000000     0.091074681  0.000000000  0.000000000
     0.000000000 11.646048686  0.000000000     0.000000000  0.085866033  0.000000000
     0.000000000  0.000000000 24.705040572     0.000000000  0.000000000  0.040477570

  length of vectors
    10.980000000 11.646048686 24.705040572     0.091074681  0.085866033  0.040477570


 
 old parameters found on file WAVECAR:
  energy-cutoff  :      400.00
  volume of cell :     3159.12
      direct lattice vectors                 reciprocal lattice vectors
    10.980000000  0.000000000  0.000000000     0.091074681  0.000000000  0.000000000
     0.000000000 11.646048686  0.000000000     0.000000000  0.085866033  0.000000000
     0.000000000  0.000000000 24.705040572     0.000000000  0.000000000  0.040477570

  length of vectors

 
 k-points in units of 2pi/SCALE and weight: CeO2-111-3x3-9layers         ! Comment  
   0.00000000  0.00000000  0.00000000       1.000
 
 k-points in reciprocal lattice and weights: CeO2-111-3x3-9layers         ! Comment  
   0.00000000  0.00000000  0.00000000       1.000
 
 position of ions in fractional coordinates (direct lattice) 
   0.77120274  0.16666677  0.00000000
   0.77120274  0.50000010  0.00000000
   0.27120274  0.16666677  0.00000000
   0.77120274  0.83333343  0.00000000
   0.27120274  0.50000010  0.00000000
   0.27120274  0.83333343  0.00000000
   0.52120274  0.00000010  0.07856729
   0.52120274  0.66666677  0.07856729
   0.02120274  0.00000010  0.07856729
   0.52120274  0.33333343  0.07856729
   0.02120274  0.33333343  0.07856729
   0.02120274  0.66666677  0.07856729
   0.77106270  0.16778295  0.15762866
   0.77110631  0.83336649  0.15767667
   0.27060831  0.16666249  0.15753930
   0.77160243  0.50035922  0.15661869
   0.27031190  0.50029249  0.15818512
   0.27135309  0.83410966  0.15713883
   0.02231234  0.66605580  0.23449831
   0.51990063  0.66865490  0.23316330
   0.02312297  0.33519830  0.23578314
   0.02158062  0.99935832  0.23363268
   0.52265578  0.00260056  0.23413844
   0.51674953  0.33374716  0.23267689
   0.76489420  0.50190593  0.31125836
   0.77704250  0.16885213  0.31542150
   0.27194772  0.50264097  0.32032342
   0.27549704  0.83464283  0.31482698
   0.26762488  0.16578018  0.31686797
   0.77180120  0.83345432  0.31671648
   0.02429659  0.00022955  0.38466656
   0.52082838  0.98898670  0.38705605
   0.02966239  0.68239557  0.38738390
   0.52168998  0.66607384  0.38561981
   0.01987471  0.32373559  0.39092868
   0.64620274  0.33333343  0.00000000
   0.14620274  0.00000010  0.00000000
   0.64620274  0.66666677  0.00000000
   0.89620274  0.00000010  0.00000000
   0.89620274  0.33333343  0.00000000
   0.14620274  0.33333343  0.00000000
   0.39620274  0.66666677  0.00000000
   0.39620274  0.00000010  0.00000000
   0.64620274  0.00000010  0.00000000
   0.39620274  0.33333343  0.00000000
   0.89620274  0.66666677  0.00000000
   0.14620274  0.66666677  0.00000000
   0.39620274  0.83333343  0.07856729
   0.64620274  0.83333343  0.07856729
   0.39620274  0.16666677  0.07856729
   0.14620274  0.16666677  0.07856729
   0.89620274  0.16666677  0.07856729
   0.89620274  0.83333343  0.07856729
   0.64620274  0.16666677  0.07856729
   0.14620274  0.83333343  0.07856729
   0.39620274  0.50000010  0.07856729
   0.14620274  0.50000010  0.07856729
   0.89620274  0.50000010  0.07856729
   0.64620274  0.50000010  0.07856729
   0.64699534  0.00011434  0.15653352
   0.39518269  0.66616404  0.15687852
   0.64654140  0.66909210  0.15652323
   0.89642256  0.66733662  0.15658679
   0.14638178  0.00042644  0.15662334
   0.89620034  0.99957760  0.15789254
   0.39637009  0.00172967  0.15668548
   0.14599539  0.66591532  0.15731651
   0.39434878  0.33363455  0.15632297
   0.89607130  0.33367816  0.15722343
   0.64548523  0.33313147  0.15662477
   0.14604879  0.33441623  0.15774011
   0.64717514  0.16536278  0.23468902
   0.64699499  0.83769487  0.23621848
   0.39703969  0.83698561  0.23353546
   0.89533377  0.50252715  0.23443425
   0.14636198  0.83340784  0.23441171
   0.64523882  0.50230735  0.23299980
   0.39479364  0.16734349  0.23540104
   0.89701844  0.16970456  0.23648751
   0.39417251  0.49795828  0.23652511
   0.14532475  0.50154614  0.23731490
   0.14542356  0.16657246  0.23572584
   0.89636155  0.82753395  0.23692004
   0.64124499  0.34040753  0.30748254
   0.89723469  0.99739012  0.31067682
   0.14898483  0.67304561  0.31396830
   0.39243273  0.33014239  0.31669619
   0.64863809  0.00430897  0.31674147
   0.64548840  0.66765258  0.31061770
   0.39842947  0.99861696  0.31310178
   0.89876762  0.65782566  0.31909168
   0.39845651  0.67276167  0.30923641
   0.89946556  0.34144206  0.31467235
   0.14863755  0.33142302  0.31509851
   0.14715305  0.99875199  0.31167110
   0.64234840  0.83266489  0.39077415
   0.14538311  0.83690143  0.39221061
   0.40357931  0.83426747  0.39110023
   0.40994158  0.15365654  0.39527688
   0.14606639  0.15860455  0.39240394
   0.90524516  0.83623518  0.39085353
   0.90749402  0.15517871  0.38744584
   0.66654443  0.18537833  0.40046055
   0.87408788  0.39860728  0.43589145
   0.68423215  0.52923817  0.39624095
   0.10779354  0.50803854  0.38891251
   0.52721126  0.25878966  0.35978731
   0.70632946  0.35944272  0.41097709
   0.38800041  0.53567701  0.39109967
   0.41811805  0.40297791  0.50319795
   0.47488800  0.31880861  0.51048153
   0.53083905  0.23454300  0.51913722
 
 position of ions in cartesian coordinates  (Angst):
   8.46780604  1.94100927  0.00000000
   8.46780604  5.82302550  0.00000000
   2.97780604  1.94100927  0.00000000
   8.46780604  9.70504173  0.00000000
   2.97780604  5.82302550  0.00000000
   2.97780604  9.70504173  0.00000000
   5.72280604  0.00000116  1.94100811
   5.72280604  7.76403361  1.94100811
   0.23280604  0.00000116  1.94100811
   5.72280604  3.88201739  1.94100811
   0.23280604  3.88201739  1.94100811
   0.23280604  7.76403361  1.94100811
   8.46626840  1.95400845  3.89422254
   8.46674724  9.70542674  3.89540852
   2.97127926  1.94095943  3.89201479
   8.47219464  5.82720788  3.86927115
   2.96802462  5.82643070  3.90796991
   2.97945698  9.71408167  3.88212124
   0.24498952  7.75691833  5.79329018
   5.70850890  7.78718754  5.76030886
   0.25389025  3.90373567  5.82503199
   0.23695521 11.63857561  5.77190492
   5.73876042  0.03028619  5.78439970
   5.67390979  3.88683570  5.74829199
   8.39853828  5.84522085  7.68965052
   8.53192668  1.96646007  7.79250088
   2.98598594  5.85378122  7.91360301
   3.02495752  9.72029104  7.77781327
   2.93852117  1.93068405  7.82823595
   8.47437713  9.70644956  7.82449351
   0.26677655  0.00267334  9.50320301
   5.71869564 11.51778720  9.56223532
   0.32569304  7.94721202  9.57033501
   5.72815594  7.75712836  9.52675298
   0.21822437  3.77024047  9.65790890
   7.09530604  3.88201739  0.00000000
   1.60530604  0.00000116  0.00000000
   7.09530604  7.76403361  0.00000000
   9.84030604  0.00000116  0.00000000
   9.84030604  3.88201739  0.00000000
   1.60530604  3.88201739  0.00000000
   4.35030604  7.76403361  0.00000000
   4.35030604  0.00000116  0.00000000
   7.09530604  0.00000116  0.00000000
   4.35030604  3.88201739  0.00000000
   9.84030604  7.76403361  0.00000000
   1.60530604  7.76403361  0.00000000
   4.35030604  9.70504173  1.94100811
   7.09530604  9.70504173  1.94100811
   4.35030604  1.94100927  1.94100811
   1.60530604  1.94100927  1.94100811
   9.84030604  1.94100927  1.94100811
   9.84030604  9.70504173  1.94100811
   7.09530604  1.94100927  1.94100811
   1.60530604  9.70504173  1.94100811
   4.35030604  5.82302550  1.94100811
   1.60530604  5.82302550  1.94100811
   9.84030604  5.82302550  1.94100811
   7.09530604  5.82302550  1.94100811
   7.10400880  0.00133155  3.86716686
   4.33910589  7.75817879  3.87569031
   7.09902453  7.79227914  3.86691286
   9.84271972  7.77183471  3.86848296
   1.60727191  0.00496637  3.86938608
   9.84027973 11.64112945  3.90074160
   4.35214361  0.02014377  3.87092117
   1.60302936  7.75528223  3.88651078
   4.32994964  3.88552416  3.86196530
   9.83886283  3.88603206  3.88421115
   7.08742782  3.87966536  3.86942126
   1.60361574  3.89462774  3.89697580
   7.10598302  1.92582301  5.79800175
   7.10400498  9.75583526  5.83578719
   4.35949579  9.74757519  5.76950290
   9.83076484  5.85245569  5.79170756
   1.60705451  9.70590824  5.79115081
   7.08472223  5.84989581  5.75626954
   4.33483413  1.94889046  5.81559226
   9.84926251  1.97638762  5.84243352
   4.32801415  5.79924633  5.84336240
   1.59566573  5.84103074  5.86287419
   1.59675072  1.93991093  5.82361653
   9.84204985  9.63750072  5.85311924
   7.04086994  3.96440263  7.59636861
   9.85163687 11.61565388  7.67528346
   1.63585349  7.83832190  7.75659953
   4.30891137  3.84485435  7.82399227
   7.12204621  0.05018247  7.82511092
   7.08746266  7.77551444  7.67382294
   4.37475559 11.62994172  7.73519216
   9.86846842  7.66106968  7.88317299
   4.37505249  7.83501521  7.63969800
   9.87613182  3.97645082  7.77399307
   1.63204028  3.85976862  7.78452155
   1.61574053 11.63151428  7.69984720
   7.05298549  9.69725590  9.65409119
   1.59630658  9.74659480  9.68957903
   4.43130079  9.71591955  9.66214697
   4.50115851  1.78949159  9.76533147
   1.60380899  1.84711629  9.69435537
   9.93959181  9.73883567  9.65605242
   9.96428438  1.80721885  9.57186519
   7.31865782  2.15892510  9.89339408
   9.59748488  4.64219983 10.76871597
   7.51286905  6.16353353  9.78914882
   1.18357306  5.91664163  9.60809941
   5.78877962  3.01387701  8.88856014
   7.75549742  4.18608747 10.15320567
   4.26024451  6.23852054  9.66213326
   4.59093615  4.69310039 12.43152571
   5.21427019  3.71286057 12.61146696
   5.82861275  2.73149918 12.82530609
 


--------------------------------------------------------------------------------------------------------


 use parallel FFT for wavefunctions z direction half grid
 k-point  1 :   0.0000 0.0000 0.0000  plane waves:   28608

 maximum and minimum number of plane-waves per node :      4774     4761

 maximum number of plane-waves:     28608
 maximum index in each direction: 
   IXMAX=   17   IYMAX=   18   IZMAX=   40
   IXMIN=  -17   IYMIN=  -18   IZMIN=    0

 NGX is ok and might be reduce to  70
 NGY is ok and might be reduce to  74
 NGZ is ok and might be reduce to 162

 real space projection operators:
  total allocation   :      67640.83 KBytes
  max/ min on nodes  :      11497.75      11136.81


 parallel 3D FFT for wavefunctions:
    minimum data exchange during FFTs selected (reduces bandwidth)
 parallel 3D FFT for charge:
    minimum data exchange during FFTs selected (reduces bandwidth)


 total amount of memory used by VASP on root node   163987. kBytes
========================================================================

   base      :      30000. kBytes
   nonlr-proj:      13771. kBytes
   fftplans  :      48666. kBytes
   grid      :      47502. kBytes
   one-center:        933. kBytes
   wavefun   :      23115. kBytes
 
     INWAV:  cpu time    1.42: real time    1.46
 Broyden mixing: mesh for mixing (old mesh)
   NGX = 35   NGY = 37   NGZ = 81
  (NGX  =144   NGY  =160   NGZ  =324)
  gives a total of 104895 points

 charge density for first step will be calculated from the start-wavefunctions


--------------------------------------------------------------------------------------------------------


 Maximum index for non-local projection operator          904
 Maximum index for augmentation-charges         5631 (set IRDMAX)


--------------------------------------------------------------------------------------------------------


 initial charge from wavefunction
 First call to EWALD:  gamma=   0.121
 Maximum number of real-space cells 4x 3x 2
 Maximum number of reciprocal cells 2x 2x 4

 FEWALD executed in parallel
    FEWALD:  cpu time    0.00: real time    0.00


----------------------------------------- Iteration    1(   1)  ---------------------------------------


    POTLOK:  cpu time    0.68: real time    0.68
    SETDIJ:  cpu time    4.23: real time    4.23
     EDDAV:  cpu time   20.68: real time   20.69
       DOS:  cpu time    0.00: real time    0.00
    CHARGE:  cpu time    1.85: real time    1.85
    MIXING:  cpu time    0.01: real time    0.01
    --------------------------------------------
      LOOP:  cpu time   27.46: real time   27.48

 eigenvalue-minimisations  :  3152
 total energy-change (2. order) :-0.9292112E+03  (-0.1388047E+03)
 number of electron     887.9999995 magnetization       0.0000455
 augmentation part       -3.6268507 magnetization       0.0001486

 DIPCOR: dipole corrections for dipol
 direction  3 min pos   231,
 dipolmoment           0.000000      0.000000     -1.311583 electrons x Angstroem
 Tr[quadrupol]    -19612.392465

 energy correction for charged system         0.000000 eV
 dipol+quadrupol energy correction           -0.049278 eV
 added-field ion interaction        -10.580745 eV  (added to PSCEN)


 Broyden mixing:
  rms(total) = 0.63208E+01    rms(broyden)= 0.63142E+01
  rms(prec ) = 0.71382E+01
  weight for this iteration     100.00

 Free energy of the ion-electron system (eV)
  ---------------------------------------------------
  alpha Z        PSCENC =      2255.83169369
  Ewald energy   TEWEN  =    247707.86861954
  -Hartree energ DENC   =   -316247.92440088
  -exchange      EXHF   =         0.00000000
  -V(xc)+E(xc)   XCENC  =      2332.78375846
  PAW double counting   =     68973.42177773   -68113.58549671
  entropy T*S    EENTRO =        -0.04229754
  eigenvalues    EBANDS =     -8636.82802024
  atomic energy  EATOM  =     70799.26311930
  ---------------------------------------------------
  free energy    TOTEN  =      -929.21124665 eV

  energy without entropy =     -929.16894911  energy(sigma->0) =     -929.19009788


--------------------------------------------------------------------------------------------------------




----------------------------------------- Iteration    1(   2)  ---------------------------------------


    POTLOK:  cpu time    0.68: real time    0.68
    SETDIJ:  cpu time    4.25: real time    4.25
    EDDIAG:  cpu time    2.66: real time    2.66
  RMM-DIIS:  cpu time   18.32: real time   18.33
    ORTHCH:  cpu time    0.24: real time    0.24
       DOS:  cpu time    0.00: real time    0.00
    CHARGE:  cpu time    1.88: real time    1.88
    MIXING:  cpu time    0.01: real time    0.01
    --------------------------------------------
      LOOP:  cpu time   28.04: real time   28.06

 eigenvalue-minimisations  :  3863
 total energy-change (2. order) :-0.1046166E+04  (-0.1575276E+03)
 number of electron     888.0000001 magnetization      -0.0000727
 augmentation part       76.5482390 magnetization       0.0005186

 DIPCOR: dipole corrections for dipol
 direction  3 min pos   235,
 dipolmoment           0.000000      0.000000     12.460977 electrons x Angstroem
 Tr[quadrupol]    -19610.274599

 energy correction for charged system         0.000000 eV
 dipol+quadrupol energy correction           -4.448030 eV
 added-field ion interaction        293.864163 eV  (added to PSCEN)


 Broyden mixing:
  rms(total) = 0.34120E+02    rms(broyden)= 0.34118E+02
  rms(prec ) = 0.42089E+02
  weight for this iteration     100.00

 eigenvalues of (default mixing * dielectric matrix)
  average eigenvalue GAMMA=   0.0415
  0.0415

 Free energy of the ion-electron system (eV)
  ---------------------------------------------------
  alpha Z        PSCENC =      2555.87784935
  Ewald energy   TEWEN  =    247707.86861954
  -Hartree energ DENC   =   -315890.67202928
  -exchange      EXHF   =         0.00000000
  -V(xc)+E(xc)   XCENC  =      2330.46557713
  PAW double counting   =     69019.52572250   -68170.42647086
  entropy T*S    EENTRO =        -0.07064555
  eigenvalues    EBANDS =    -10327.20933391
  atomic energy  EATOM  =     70799.26311930
  ---------------------------------------------------
  free energy    TOTEN  =     -1975.37759179 eV

  energy without entropy =    -1975.30694623  energy(sigma->0) =    -1975.34226901


--------------------------------------------------------------------------------------------------------




----------------------------------------- Iteration    1(   3)  ---------------------------------------


    POTLOK:  cpu time    0.67: real time    0.67
    SETDIJ:  cpu time    4.25: real time    4.25
    EDDIAG:  cpu time    2.66: real time    2.66
  RMM-DIIS:  cpu time   14.00: real time   14.01
    ORTHCH:  cpu time    0.24: real time    0.24
       DOS:  cpu time    0.00: real time    0.00
    CHARGE:  cpu time    1.85: real time    1.85
    MIXING:  cpu time    0.01: real time    0.01
    --------------------------------------------
      LOOP:  cpu time   23.68: real time   23.70

 eigenvalue-minimisations  :  2987
 total energy-change (2. order) : 0.9922252E+03  (-0.2591369E+02)
 number of electron     887.9999994 magnetization      -0.0024362
 augmentation part        3.1539302 magnetization       0.0001288

 DIPCOR: dipole corrections for dipol
 direction  3 min pos   236,
 dipolmoment           0.000000      0.000000      2.685171 electrons x Angstroem
 Tr[quadrupol]    -19608.208101

 energy correction for charged system         0.000000 eV
 dipol+quadrupol energy correction           -0.206542 eV
 added-field ion interaction         73.739238 eV  (added to PSCEN)


 Broyden mixing:
  rms(total) = 0.73600E+01    rms(broyden)= 0.73533E+01
  rms(prec ) = 0.92998E+01
  weight for this iteration     100.00

 eigenvalues of (default mixing * dielectric matrix)
  average eigenvalue GAMMA=   0.2412
  0.4213  0.0611

 Free energy of the ion-electron system (eV)
  ---------------------------------------------------
  alpha Z        PSCENC =      2339.99441352
  Ewald energy   TEWEN  =    247707.86861954
  -Hartree energ DENC   =   -316090.12208921
  -exchange      EXHF   =         0.00000000
  -V(xc)+E(xc)   XCENC  =      2329.12162170
  PAW double counting   =     69062.47638090   -68220.51526970
  entropy T*S    EENTRO =        -0.04921442
  eigenvalues    EBANDS =     -8911.18993901
  atomic energy  EATOM  =     70799.26311930
  ---------------------------------------------------
  free energy    TOTEN  =      -983.15235739 eV

  energy without entropy =     -983.10314297  energy(sigma->0) =     -983.12775018


--------------------------------------------------------------------------------------------------------




----------------------------------------- Iteration    1(   4)  ---------------------------------------


    POTLOK:  cpu time    0.67: real time    0.67
    SETDIJ:  cpu time    4.25: real time    4.25
    EDDIAG:  cpu time    2.66: real time    2.66
  RMM-DIIS:  cpu time   16.06: real time   16.07
    ORTHCH:  cpu time    0.24: real time    0.24
       DOS:  cpu time    0.00: real time    0.00
    CHARGE:  cpu time    1.89: real time    1.89
    MIXING:  cpu time    0.01: real time    0.01
    --------------------------------------------
      LOOP:  cpu time   25.78: real time   25.79

 eigenvalue-minimisations  :  3394
 total energy-change (2. order) :-0.1938620E+02  (-0.3468011E+02)
 number of electron     887.9999998 magnetization      -0.0009141
 augmentation part       26.5166481 magnetization      -0.0285858

 DIPCOR: dipole corrections for dipol
 direction  3 min pos   232,
 dipolmoment           0.000000      0.000000     -2.603145 electrons x Angstroem
 Tr[quadrupol]    -19577.030214

 energy correction for charged system         0.000000 eV
 dipol+quadrupol energy correction           -0.194116 eV
 added-field ion interaction        -31.097313 eV  (added to PSCEN)


 Broyden mixing:
  rms(total) = 0.15798E+02    rms(broyden)= 0.15795E+02
  rms(prec ) = 0.20048E+02
  weight for this iteration     100.00

 eigenvalues of (default mixing * dielectric matrix)
  average eigenvalue GAMMA=   0.1861
  0.4332  0.0625  0.0625

 Free energy of the ion-electron system (eV)
  ---------------------------------------------------
  alpha Z        PSCENC =      2235.17028878
  Ewald energy   TEWEN  =    247707.86861954
  -Hartree energ DENC   =   -315394.54458543
  -exchange      EXHF   =         0.00000000
  -V(xc)+E(xc)   XCENC  =      2330.19654076
  PAW double counting   =     68962.63257156   -68117.83865926
  entropy T*S    EENTRO =        -0.15519691
  eigenvalues    EBANDS =     -9525.13125680
  atomic energy  EATOM  =     70799.26311930
  ---------------------------------------------------
  free energy    TOTEN  =     -1002.53855846 eV

  energy without entropy =    -1002.38336155  energy(sigma->0) =    -1002.46096001


--------------------------------------------------------------------------------------------------------




----------------------------------------- Iteration    1(   5)  ---------------------------------------


    POTLOK:  cpu time    0.67: real time    0.68
    SETDIJ:  cpu time    4.26: real time    4.27
    EDDIAG:  cpu time    2.66: real time    2.66
  RMM-DIIS:  cpu time   13.70: real time   13.71
    ORTHCH:  cpu time    0.24: real time    0.24
       DOS:  cpu time    0.00: real time    0.00
    CHARGE:  cpu time    1.84: real time    1.85
    MIXING:  cpu time    0.01: real time    0.01
    --------------------------------------------
      LOOP:  cpu time   23.40: real time   23.42

 eigenvalue-minimisations  :  2929
 total energy-change (2. order) : 0.5736025E+02  (-0.6506248E+01)
 number of electron     887.9999993 magnetization      -0.0005111
 augmentation part       -9.4355131 magnetization      -0.0015836

 DIPCOR: dipole corrections for dipol
 direction  3 min pos   231,
 dipolmoment           0.000000      0.000000      0.941348 electrons x Angstroem
 Tr[quadrupol]    -19591.154585

 energy correction for charged system         0.000000 eV
 dipol+quadrupol energy correction           -0.025384 eV
 added-field ion interaction          7.593998 eV  (added to PSCEN)


 Broyden mixing:
  rms(total) = 0.41719E+01    rms(broyden)= 0.41671E+01
  rms(prec ) = 0.44282E+01
  weight for this iteration     100.00

 eigenvalues of (default mixing * dielectric matrix)
  average eigenvalue GAMMA=   0.2625
  0.4606  0.4606  0.0644  0.0644

 Free energy of the ion-electron system (eV)
  ---------------------------------------------------
  alpha Z        PSCENC =      2274.03033102
  Ewald energy   TEWEN  =    247707.86861954
  -Hartree energ DENC   =   -315730.19624660
  -exchange      EXHF   =         0.00000000
  -V(xc)+E(xc)   XCENC  =      2329.01968123
  PAW double counting   =     68987.13514268   -68147.18654945
  entropy T*S    EENTRO =        -0.00000000
  eigenvalues    EBANDS =     -9165.11240639
  atomic energy  EATOM  =     70799.26311930
  ---------------------------------------------------
  free energy    TOTEN  =      -945.17830867 eV

  energy without entropy =     -945.17830867  energy(sigma->0) =     -945.17830867


--------------------------------------------------------------------------------------------------------




----------------------------------------- Iteration    1(   6)  ---------------------------------------


    POTLOK:  cpu time    0.67: real time    0.67
    SETDIJ:  cpu time    4.25: real time    4.25
    EDDIAG:  cpu time    2.66: real time    2.66
  RMM-DIIS:  cpu time   14.92: real time   14.93
    ORTHCH:  cpu time    0.24: real time    0.24
       DOS:  cpu time    0.00: real time    0.00
    CHARGE:  cpu time    1.86: real time    1.86
    MIXING:  cpu time    0.01: real time    0.01
    --------------------------------------------
      LOOP:  cpu time   24.60: real time   24.62

 eigenvalue-minimisations  :  3176
 total energy-change (2. order) : 0.2734892E+02  (-0.2093452E+01)
 number of electron     887.9999993 magnetization       0.0000241
 augmentation part       -9.4812152 magnetization      -0.0004260

 DIPCOR: dipole corrections for dipol
 direction  3 min pos   233,
 dipolmoment           0.000000      0.000000      1.474289 electrons x Angstroem
 Tr[quadrupol]    -19593.452707

 energy correction for charged system         0.000000 eV
 dipol+quadrupol energy correction           -0.062263 eV
 added-field ion interaction         23.330556 eV  (added to PSCEN)


 Broyden mixing:
  rms(total) = 0.31419E+01    rms(broyden)= 0.31416E+01
  rms(prec ) = 0.33572E+01
  weight for this iteration     100.00

 eigenvalues of (default mixing * dielectric matrix)
  average eigenvalue GAMMA=   0.5112
  0.9910  0.9910  0.4454  0.0643  0.0643

 Free energy of the ion-electron system (eV)
  ---------------------------------------------------
  alpha Z        PSCENC =      2289.73001031
  Ewald energy   TEWEN  =    247707.86861954
  -Hartree energ DENC   =   -315795.64918593
  -exchange      EXHF   =         0.00000000
  -V(xc)+E(xc)   XCENC  =      2331.91989022
  PAW double counting   =     68905.82183411   -68062.18657144
  entropy T*S    EENTRO =        -0.00000000
  eigenvalues    EBANDS =     -9094.59710560
  atomic energy  EATOM  =     70799.26311930
  ---------------------------------------------------
  free energy    TOTEN  =      -917.82938949 eV

  energy without entropy =     -917.82938949  energy(sigma->0) =     -917.82938949


--------------------------------------------------------------------------------------------------------




----------------------------------------- Iteration    1(   7)  ---------------------------------------


    POTLOK:  cpu time    0.67: real time    0.67
    SETDIJ:  cpu time    4.25: real time    4.25
    EDDIAG:  cpu time    2.66: real time    2.66
  RMM-DIIS:  cpu time   15.23: real time   15.24
    ORTHCH:  cpu time    0.24: real time    0.24
       DOS:  cpu time    0.00: real time    0.00
    CHARGE:  cpu time    1.85: real time    1.85
    MIXING:  cpu time    0.01: real time    0.01
    --------------------------------------------
      LOOP:  cpu time   24.92: real time   24.93

 eigenvalue-minimisations  :  3218
 total energy-change (2. order) : 0.2361080E+02  (-0.1129476E+02)
 number of electron     887.9999994 magnetization       0.0012272
 augmentation part       -5.2592814 magnetization      -0.0022969

 DIPCOR: dipole corrections for dipol
 direction  3 min pos   234,
 dipolmoment           0.000000      0.000000      1.528776 electrons x Angstroem
 Tr[quadrupol]    -19597.628343

 energy correction for charged system         0.000000 eV
 dipol+quadrupol energy correction           -0.066950 eV
 added-field ion interaction         30.122774 eV  (added to PSCEN)


 Broyden mixing:
  rms(total) = 0.25977E+01    rms(broyden)= 0.25947E+01
  rms(prec ) = 0.29936E+01
  weight for this iteration     100.00

 eigenvalues of (default mixing * dielectric matrix)
  average eigenvalue GAMMA=   0.5032
  1.0274  1.0274  0.4180  0.4180  0.0643  0.0643

 Free energy of the ion-electron system (eV)
  ---------------------------------------------------
  alpha Z        PSCENC =      2296.51754116
  Ewald energy   TEWEN  =    247707.86861954
  -Hartree energ DENC   =   -315930.17645762
  -exchange      EXHF   =         0.00000000
  -V(xc)+E(xc)   XCENC  =      2337.23960753
  PAW double counting   =     68729.32301744   -67879.66555645
  entropy T*S    EENTRO =        -0.10385141
  eigenvalues    EBANDS =     -8954.48462829
  atomic energy  EATOM  =     70799.26311930
  ---------------------------------------------------
  free energy    TOTEN  =      -894.21858880 eV

  energy without entropy =     -894.11473739  energy(sigma->0) =     -894.16666310


--------------------------------------------------------------------------------------------------------




----------------------------------------- Iteration    1(   8)  ---------------------------------------


    POTLOK:  cpu time    0.67: real time    0.68
    SETDIJ:  cpu time    4.25: real time    4.25
    EDDIAG:  cpu time    2.66: real time    2.66
  RMM-DIIS:  cpu time   12.60: real time   12.61
    ORTHCH:  cpu time    0.24: real time    0.24
       DOS:  cpu time    0.00: real time    0.00
    CHARGE:  cpu time    1.84: real time    1.84
    MIXING:  cpu time    0.01: real time    0.01
    --------------------------------------------
      LOOP:  cpu time   22.28: real time   22.29

 eigenvalue-minimisations  :  2690
 total energy-change (2. order) : 0.1889363E+01  (-0.1653464E+01)
 number of electron     887.9999994 magnetization       0.0010266
 augmentation part       -8.1510896 magnetization      -0.0007319

 DIPCOR: dipole corrections for dipol
 direction  3 min pos   232,
 dipolmoment           0.000000      0.000000      0.548712 electrons x Angstroem
 Tr[quadrupol]    -19596.219884

 energy correction for charged system         0.000000 eV
 dipol+quadrupol energy correction           -0.008625 eV
 added-field ion interaction          6.554943 eV  (added to PSCEN)


 Broyden mixing:
  rms(total) = 0.16541E+01    rms(broyden)= 0.16519E+01
  rms(prec ) = 0.17482E+01
  weight for this iteration     100.00

 eigenvalues of (default mixing * dielectric matrix)
  average eigenvalue GAMMA=   0.5628
  1.2050  1.2050  0.5758  0.5322  0.0643  0.0643  0.2927

 Free energy of the ion-electron system (eV)
  ---------------------------------------------------
  alpha Z        PSCENC =      2273.00803500
  Ewald energy   TEWEN  =    247707.86861954
  -Hartree energ DENC   =   -315907.92462213
  -exchange      EXHF   =         0.00000000
  -V(xc)+E(xc)   XCENC  =      2336.88919622
  PAW double counting   =     68682.90631497   -67833.73461752
  entropy T*S    EENTRO =        -0.00000000
  eigenvalues    EBANDS =     -8950.60527147
  atomic energy  EATOM  =     70799.26311930
  ---------------------------------------------------
  free energy    TOTEN  =      -892.32922609 eV

  energy without entropy =     -892.32922609  energy(sigma->0) =     -892.32922609


--------------------------------------------------------------------------------------------------------




----------------------------------------- Iteration    1(   9)  ---------------------------------------


    POTLOK:  cpu time    0.67: real time    0.67
    SETDIJ:  cpu time    4.25: real time    4.25
    EDDIAG:  cpu time    2.66: real time    2.67
  RMM-DIIS:  cpu time   15.08: real time   15.09
    ORTHCH:  cpu time    0.24: real time    0.24
       DOS:  cpu time    0.00: real time    0.00
    CHARGE:  cpu time    1.84: real time    1.84
    MIXING:  cpu time    0.01: real time    0.01
    --------------------------------------------
      LOOP:  cpu time   24.77: real time   24.78

 eigenvalue-minimisations  :  3216
 total energy-change (2. order) : 0.3399444E+01  (-0.1642251E+01)
 number of electron     887.9999993 magnetization       0.0010537
 augmentation part       -8.3995322 magnetization      -0.0008994

 DIPCOR: dipole corrections for dipol
 direction  3 min pos   236,
 dipolmoment           0.000000      0.000000      0.363835 electrons x Angstroem
 Tr[quadrupol]    -19595.028048

 energy correction for charged system         0.000000 eV
 dipol+quadrupol energy correction           -0.003792 eV
 added-field ion interaction          9.991504 eV  (added to PSCEN)


 Broyden mixing:
  rms(total) = 0.12574E+01    rms(broyden)= 0.12572E+01
  rms(prec ) = 0.13388E+01
  weight for this iteration     100.00

 eigenvalues of (default mixing * dielectric matrix)
  average eigenvalue GAMMA=   0.6609
  1.4033  1.4033  0.7947  0.7947  0.0643  0.0643  0.3814  0.3814

 Free energy of the ion-electron system (eV)
  ---------------------------------------------------
  alpha Z        PSCENC =      2276.44942887
  Ewald energy   TEWEN  =    247707.86861954
  -Hartree energ DENC   =   -315872.43480479
  -exchange      EXHF   =         0.00000000
  -V(xc)+E(xc)   XCENC  =      2336.46954005
  PAW double counting   =     68577.60670893   -67726.98098600
  entropy T*S    EENTRO =        -0.00000000
  eigenvalues    EBANDS =     -8987.17140750
  atomic energy  EATOM  =     70799.26311930
  ---------------------------------------------------
[...]
      4.35031      9.70504      1.94101        -0.355676     -0.003843     -0.309662
      7.09531      9.70504      1.94101         0.372092      0.014403     -0.352255
      4.35031      1.94101      1.94101        -0.375753      0.027705     -0.351210
      1.60531      1.94101      1.94101         0.328276      0.036710     -0.294788
      9.84031      1.94101      1.94101        -0.339989     -0.030080     -0.275227
      9.84031      9.70504      1.94101        -0.353682      0.065408     -0.301377
      7.09531      1.94101      1.94101         0.381328      0.018937     -0.333068
      1.60531      9.70504      1.94101         0.342323      0.001561     -0.314436
      4.35031      5.82303      1.94101        -0.360983      0.020961     -0.293837
      1.60531      5.82303      1.94101         0.343926     -0.014178     -0.292473
      9.84031      5.82303      1.94101        -0.338165     -0.010935     -0.376021
      7.09531      5.82303      1.94101         0.360166      0.036033     -0.335849
      7.10396      0.00140      3.86693        -0.001089     -0.001766      0.010954
      4.33916      7.75808      3.87551        -0.000684     -0.002804      0.007637
      7.09895      7.79217      3.86668         0.001757     -0.001195      0.006285
      9.84288      7.77162      3.86845        -0.000551     -0.004198      0.009066
      1.60709      0.00507      3.86932         0.000909      0.001737      0.007621
      9.84035     11.64114      3.90068        -0.003353     -0.003566      0.006365
      4.35209      0.02016      3.87066        -0.001308     -0.000482      0.010476
      1.60296      7.75518      3.88645         0.003306     -0.003089      0.008237
      4.33002      3.88554      3.86180        -0.001997     -0.002403      0.007005
      9.83901      3.88602      3.88423        -0.000811     -0.002855      0.007532
      7.08739      3.87965      3.86927         0.003145     -0.003264      0.005349
      1.60342      3.89469      3.89694         0.001356     -0.000310      0.006605
      7.10613      1.92594      5.79831        -0.004605     -0.006468     -0.000984
      7.10405      9.75569      5.83584         0.001410     -0.001929      0.004121
      4.35949      9.74740      5.76949         0.001557     -0.001335      0.005206
      9.83073      5.85230      5.79197         0.000542     -0.002947      0.001655
      1.60692      9.70599      5.79117         0.003817     -0.000482      0.004761
      7.08482      5.84984      5.75647        -0.001146     -0.000607     -0.000003
      4.33481      1.94898      5.81570        -0.000990     -0.006251      0.004321
      9.84920      1.97633      5.84278         0.000316     -0.004291     -0.000679
      4.32803      5.79922      5.84343         0.003013     -0.000322     -0.003204
      1.59561      5.84092      5.86307        -0.000016     -0.001696      0.001520
      1.59662      1.94004      5.82373         0.004182      0.000799      0.004041
      9.84231      9.63749      5.85301        -0.000295     -0.002275     -0.000113
      7.04085      3.96394      7.59675         0.004151     -0.004891     -0.006718
      9.85183     11.61583      7.67553        -0.002574     -0.012717     -0.007294
      1.63582      7.83810      7.75690         0.009049      0.003842     -0.002943
      4.30909      3.84514      7.82393         0.003338     -0.000106     -0.007021
      7.12200      0.05047      7.82548         0.001449     -0.008130     -0.008957
      7.08740      7.77519      7.67395         0.001113      0.000831     -0.004467
      4.37503     11.63001      7.73569        -0.003638     -0.004911     -0.006437
      9.86864      7.66091      7.88333        -0.001072      0.001325     -0.005618
      4.37519      7.83469      7.63995         0.000384      0.002235     -0.002529
      9.87620      3.97641      7.77432         0.003081      0.001017     -0.002195
      1.63206      3.85989      7.78488         0.011291     -0.006684     -0.000268
      1.61549     11.63162      7.70017         0.013530     -0.001352     -0.006892
      7.05285      9.69745      9.65423         0.008454     -0.007309     -0.008839
      1.59615      9.74672      9.68989         0.010327     -0.003117     -0.003316
      4.43167      9.71610      9.66237        -0.001045     -0.005529     -0.005965
      4.50094      1.78938      9.76573        -0.003053      0.001619     -0.000863
      1.60345      1.84706      9.69492         0.008618     -0.001862      0.000676
      9.93988      9.73894      9.65637        -0.005980     -0.006865     -0.003361
      9.96428      1.80708      9.57191        -0.000933     -0.006299     -0.001589
      7.31836      2.15892      9.89322         0.002089     -0.002854     -0.000675
      9.59761      4.64155     10.76916         0.000882     -0.022002      0.014265
      7.51328      6.16332      9.78942         0.009532     -0.000260      0.003539
      1.18324      5.91638      9.60840        -0.010558      0.002391      0.003950
      5.78970      3.01376      8.88858        -0.021284     -0.010384      0.001159
      7.75541      4.18603     10.15327         0.008679     -0.003467      0.002291
      4.25988      6.23828      9.66240        -0.002473      0.002949      0.000422
      4.59087      4.69328     12.43151         0.013910     -0.017535      0.004855
      5.21448      3.71209     12.61135        -0.005237     -0.016290      0.000655
      5.82829      2.73038     12.82537        -0.017138     -0.027228      0.002041
 -----------------------------------------------------------------------------------
    total drift:                               -0.064344      0.132357     -0.380016


--------------------------------------------------------------------------------------------------------



  FREE ENERGIE OF THE ION-ELECTRON SYSTEM (eV)
  ---------------------------------------------------
  free  energy   TOTEN  =      -905.99563546 eV

  energy  without entropy=     -905.99563546  energy(sigma->0) =     -905.99563546
 
 d Force = 0.1107692E-03[-0.293E-04, 0.251E-03]  d Energy = 0.1242673E-03-0.135E-04
 d Force = 0.6104167E+01[ 0.610E+01, 0.610E+01]  d Ewald  = 0.6104167E+01-0.218E-06


--------------------------------------------------------------------------------------------------------


    POTLOK:  cpu time    4.91: real time    4.91


--------------------------------------------------------------------------------------------------------


 stress matrix after NEB project (eV)
    -72.64217      1.53784      0.42674
      1.53785   -116.28506     -1.97475
      0.42676     -1.97475    -68.28766
  FORCES: max atom, RMS     0.032238    0.011003
  FORCE total and by dimension    0.116442    0.027228
  Stress total and by dimension  153.216184  116.285064
 Conjugate gradient step on ions:
 trial-energy change:   -0.000124  1 .order   -0.000111   -0.000251    0.000029
  (g-gl).g = 0.313E-03      g.g   = 0.282E-03  gl.gl    = 0.501E-03
 g(Force)  = 0.282E-03   g(Stress)= 0.000E+00 ortho     =-0.316E-04
 gamma     =   0.62545
 trial     =   0.95819
 opt step  =   0.85786  (harmonic =   0.85786) maximal distance =0.00051059
 next E    =  -905.995623   (d E  =  -0.00011)


--------------------------------------------------------------------------------------------------------


  
 reached required accuracy - stopping structural energy minimisation
 writing wavefunctions
     LOOP+:  cpu time   95.08: real time   96.61
    4ORBIT:  cpu time    0.00: real time    0.00
 


 total charge     
 
# of ion     s       p       d       f       tot
------------------------------------------------
  1        1.992   5.764   0.872   0.774   9.401
  2        1.992   5.764   0.872   0.774   9.402
  3        1.992   5.764   0.872   0.774   9.401
  4        1.992   5.764   0.872   0.773   9.401
  5        1.992   5.764   0.872   0.773   9.401
  6        1.992   5.764   0.872   0.774   9.402
  7        1.994   5.819   0.905   0.723   9.440
  8        1.994   5.819   0.904   0.722   9.439
  9        1.993   5.818   0.902   0.722   9.435
 10        1.994   5.819   0.906   0.723   9.442
 11        1.993   5.818   0.900   0.721   9.432
 12        1.994   5.819   0.904   0.722   9.439
 13        1.994   5.819   0.909   0.724   9.446
 14        1.994   5.819   0.909   0.724   9.446
 15        1.995   5.820   0.913   0.725   9.453
 16        1.995   5.821   0.917   0.727   9.460
 17        1.994   5.819   0.908   0.723   9.445
 18        1.995   5.820   0.915   0.726   9.457
 19        1.994   5.819   0.915   0.727   9.455
 20        1.996   5.822   0.929   0.731   9.479
 21        1.994   5.819   0.907   0.725   9.445
 22        1.995   5.821   0.923   0.728   9.468
 23        1.994   5.819   0.915   0.726   9.455
 24        1.997   5.820   0.928   0.745   9.490
 25        1.998   5.811   0.954   0.753   9.517
 26        1.992   5.814   0.901   0.741   9.448
 27        1.989   5.809   0.883   0.723   9.404
 28        1.995   5.821   0.923   0.728   9.466
 29        1.994   5.817   0.909   0.732   9.452
 30        1.992   5.817   0.900   0.722   9.430
 31        2.003   5.786   1.021   0.789   9.600
 32        2.003   5.771   1.026   0.799   9.600
 33        2.007   5.765   1.080   0.798   9.650
 34        1.997   5.782   0.996   0.793   9.569
 35        1.999   5.788   0.987   0.795   9.569
 36        1.600   3.384   0.000   0.000   4.985
 37        1.600   3.384   0.000   0.000   4.985
 38        1.600   3.384   0.000   0.000   4.985
 39        1.600   3.384   0.000   0.000   4.984
 40        1.600   3.384   0.000   0.000   4.985
 41        1.600   3.384   0.000   0.000   4.985
 42        1.600   3.384   0.000   0.000   4.984
 43        1.600   3.384   0.000   0.000   4.984
 44        1.600   3.384   0.000   0.000   4.984
 45        1.600   3.384   0.000   0.000   4.984
 46        1.600   3.384   0.000   0.000   4.985
 47        1.600   3.384   0.000   0.000   4.984
 48        1.597   3.457   0.000   0.000   5.054
 49        1.596   3.456   0.000   0.000   5.052
 50        1.596   3.456   0.000   0.000   5.052
 51        1.597   3.457   0.000   0.000   5.053
 52        1.597   3.456   0.000   0.000   5.052
 53        1.596   3.456   0.000   0.000   5.052
 54        1.596   3.456   0.000   0.000   5.052
 55        1.597   3.457   0.000   0.000   5.054
 56        1.596   3.454   0.000   0.000   5.050
 57        1.596   3.455   0.000   0.000   5.051
 58        1.597   3.459   0.000   0.000   5.056
 59        1.597   3.459   0.000   0.000   5.055
 60        1.598   3.464   0.000   0.000   5.062
 61        1.598   3.467   0.000   0.000   5.066
 62        1.598   3.466   0.000   0.000   5.065
 63        1.598   3.463   0.000   0.000   5.061
 64        1.598   3.468   0.000   0.000   5.066
 65        1.598   3.465   0.000   0.000   5.063
 66        1.598   3.464   0.000   0.000   5.062
 67        1.598   3.465   0.000   0.000   5.063
 68        1.599   3.470   0.000   0.000   5.070
 69        1.597   3.460   0.000   0.000   5.057
 70        1.598   3.467   0.000   0.000   5.064
 71        1.598   3.463   0.000   0.000   5.060
 72        1.598   3.454   0.000   0.000   5.052
 73        1.597   3.454   0.000   0.000   5.051
 74        1.598   3.461   0.000   0.000   5.059
 75        1.598   3.462   0.000   0.000   5.060
 76        1.597   3.457   0.000   0.000   5.054
 77        1.597   3.468   0.000   0.000   5.065
 78        1.598   3.456   0.000   0.000   5.054
 79        1.597   3.458   0.000   0.000   5.055
 80        1.596   3.452   0.000   0.000   5.048
 81        1.598   3.451   0.000   0.000   5.049
 82        1.597   3.457   0.000   0.000   5.054
 83        1.597   3.453   0.000   0.000   5.051
 84        1.599   3.459   0.000   0.000   5.059
 85        1.598   3.476   0.000   0.000   5.074
 86        1.599   3.477   0.000   0.000   5.076
 87        1.593   3.455   0.000   0.000   5.048
 88        1.597   3.468   0.000   0.000   5.065
 89        1.599   3.479   0.000   0.000   5.078
 90        1.599   3.474   0.000   0.000   5.073
 91        1.597   3.464   0.000   0.000   5.061
 92        1.599   3.476   0.000   0.000   5.075
 93        1.597   3.464   0.000   0.000   5.061
 94        1.598   3.463   0.000   0.000   5.061
 95        1.600   3.482   0.000   0.000   5.082
 96        1.604   3.419   0.000   0.000   5.023
 97        1.603   3.427   0.000   0.000   5.030
 98        1.602   3.429   0.000   0.000   5.031
 99        1.603   3.393   0.000   0.000   4.995
100        1.602   3.421   0.000   0.000   5.023
101        1.604   3.422   0.000   0.000   5.026
102        1.606   3.442   0.000   0.000   5.048
103        1.599   3.367   0.000   0.000   4.966
104        1.606   3.367   0.000   0.000   4.973
105        1.596   3.393   0.000   0.000   4.989
106        1.601   3.419   0.000   0.000   5.020
107        0.701   0.679   8.022   0.000   9.403
108        0.637   0.496   8.055   0.000   9.188
109        1.613   3.402   0.000   0.000   5.016
110        1.632   3.543   0.000   0.000   5.175
111        0.933   1.799   0.000   0.000   2.732
112        1.630   3.548   0.000   0.000   5.178
------------------------------------------------
tot      190.475 460.871  48.301  26.081 725.728

 


 magnetization (x)
 
# of ion     s       p       d       f       tot
------------------------------------------------
  1       -0.000  -0.000   0.000   0.000   0.000
  2       -0.000  -0.000  -0.000   0.000  -0.000
  3        0.000   0.000   0.000   0.000   0.000
  4       -0.000   0.000   0.000   0.000  -0.000
  5       -0.000  -0.000   0.000   0.000  -0.000
  6        0.000   0.000   0.000   0.000   0.000
  7       -0.000   0.000   0.000   0.000   0.000
  8       -0.000   0.000  -0.000   0.000   0.000
  9       -0.000  -0.000   0.000   0.000  -0.000
 10       -0.000   0.000   0.000   0.000  -0.000
 11       -0.000   0.000   0.000   0.000  -0.000
 12        0.000   0.000   0.000  -0.000   0.000
 13       -0.000  -0.000  -0.000   0.000  -0.000
 14       -0.000  -0.000  -0.000   0.000  -0.000
 15       -0.000  -0.000  -0.000   0.000  -0.000
 16       -0.000  -0.000   0.000   0.000  -0.000
 17       -0.000  -0.000  -0.000   0.000  -0.000
 18       -0.000  -0.000   0.000   0.000  -0.000
 19       -0.000  -0.000  -0.000   0.000  -0.000
 20       -0.000  -0.000  -0.000   0.000  -0.000
 21       -0.000  -0.000   0.000   0.000   0.000
 22       -0.000  -0.000  -0.000   0.000  -0.000
 23        0.000  -0.000  -0.000   0.000   0.000
 24        0.000   0.000   0.000   0.000   0.000
 25       -0.000   0.000   0.000   0.000   0.000
 26        0.000   0.000   0.000   0.000   0.000
 27       -0.000   0.000  -0.000  -0.000  -0.000
 28       -0.000  -0.000  -0.000  -0.000  -0.000
 29       -0.000  -0.000  -0.000   0.000  -0.000
 30        0.000  -0.000  -0.000  -0.000   0.000
 31       -0.000   0.000   0.000   0.000  -0.000
 32       -0.000  -0.000   0.000   0.000  -0.000
 33       -0.000  -0.000   0.000  -0.000  -0.000
 34        0.000   0.000   0.000  -0.000   0.000
 35        0.000   0.000  -0.000  -0.000   0.000
 36       -0.000  -0.000   0.000   0.000  -0.000
 37       -0.000  -0.000   0.000   0.000  -0.000
 38       -0.000  -0.000   0.000   0.000  -0.000
 39       -0.000  -0.000   0.000   0.000  -0.000
 40       -0.000  -0.000   0.000   0.000  -0.000
 41       -0.000  -0.000   0.000   0.000  -0.000
 42       -0.000  -0.000   0.000   0.000  -0.000
 43       -0.000  -0.000   0.000   0.000  -0.000
 44       -0.000  -0.000   0.000   0.000  -0.000
 45        0.000  -0.000   0.000   0.000  -0.000
 46       -0.000  -0.000   0.000   0.000  -0.000
 47       -0.000  -0.000   0.000   0.000  -0.000
 48       -0.000  -0.000   0.000   0.000  -0.000
 49       -0.000  -0.000   0.000   0.000  -0.000
 50       -0.000  -0.000   0.000   0.000  -0.000
 51       -0.000  -0.000   0.000   0.000  -0.000
 52        0.000  -0.000   0.000   0.000  -0.000
 53       -0.000  -0.000   0.000   0.000  -0.000
 54       -0.000  -0.000   0.000   0.000  -0.000
 55       -0.000  -0.000   0.000   0.000  -0.000
 56       -0.000  -0.000   0.000   0.000  -0.000
 57       -0.000  -0.000   0.000   0.000  -0.000
 58       -0.000  -0.000   0.000   0.000  -0.000
 59       -0.000  -0.000   0.000   0.000  -0.000
 60        0.000  -0.000   0.000   0.000  -0.000
 61       -0.000  -0.000   0.000   0.000  -0.000
 62        0.000  -0.000   0.000   0.000  -0.000
 63        0.000  -0.000   0.000   0.000  -0.000
 64        0.000  -0.000   0.000   0.000  -0.000
 65        0.000  -0.000   0.000   0.000  -0.000
 66       -0.000  -0.000   0.000   0.000  -0.000
 67       -0.000  -0.000   0.000   0.000  -0.000
 68        0.000  -0.000   0.000   0.000  -0.000
 69        0.000  -0.000   0.000   0.000  -0.000
 70        0.000  -0.000   0.000   0.000  -0.000
 71       -0.000  -0.000   0.000   0.000  -0.000
 72        0.000   0.000   0.000   0.000   0.000
 73       -0.000  -0.000   0.000   0.000  -0.000
 74       -0.000  -0.000   0.000   0.000  -0.000
 75        0.000  -0.000   0.000   0.000  -0.000
 76       -0.000   0.000   0.000   0.000  -0.000
 77        0.000  -0.000   0.000   0.000  -0.000
 78        0.000  -0.000   0.000   0.000  -0.000
 79       -0.000  -0.000   0.000   0.000  -0.000
 80       -0.000  -0.000   0.000   0.000  -0.000
 81       -0.000  -0.000   0.000   0.000  -0.000
 82        0.000  -0.000   0.000   0.000  -0.000
 83        0.000   0.000   0.000   0.000   0.000
 84       -0.000  -0.000   0.000   0.000  -0.000
 85        0.000   0.000   0.000   0.000   0.000
 86        0.000   0.000   0.000   0.000   0.000
 87       -0.000   0.000   0.000   0.000   0.000
 88        0.000   0.000   0.000   0.000   0.000
 89        0.000   0.000   0.000   0.000   0.000
 90       -0.000  -0.000   0.000   0.000  -0.000
 91        0.000   0.000   0.000   0.000   0.000
 92       -0.000  -0.000   0.000   0.000  -0.000
 93        0.000  -0.000   0.000   0.000  -0.000
 94        0.000  -0.000   0.000   0.000  -0.000
 95        0.000  -0.000   0.000   0.000  -0.000
 96        0.000  -0.000   0.000   0.000  -0.000
 97       -0.000   0.000   0.000   0.000   0.000
 98       -0.000  -0.000   0.000   0.000  -0.000
 99       -0.000   0.000   0.000   0.000   0.000
100       -0.000   0.000   0.000   0.000   0.000
101        0.000  -0.000   0.000   0.000  -0.000
102        0.000  -0.000   0.000   0.000  -0.000
103        0.000  -0.000   0.000   0.000  -0.000
104        0.000   0.000   0.000   0.000   0.000
105       -0.000  -0.000   0.000   0.000  -0.000
106       -0.000   0.000   0.000   0.000   0.000
107       -0.000  -0.000  -0.000   0.000  -0.000
108       -0.000  -0.000   0.000   0.000   0.000
109       -0.000   0.000   0.000   0.000   0.000
110        0.000  -0.000   0.000   0.000   0.000
111       -0.000  -0.000   0.000   0.000  -0.000
112        0.000   0.000   0.000   0.000   0.000
------------------------------------------------
tot       -0.000  -0.000   0.000   0.000  -0.000

 

 total amount of memory used by VASP on root node   163987. kBytes
========================================================================

   base      :      30000. kBytes
   nonlr-proj:      13771. kBytes
   fftplans  :      48666. kBytes
   grid      :      47502. kBytes
   one-center:        933. kBytes
   wavefun   :      23115. kBytes
 
  
  
 General timing and accounting informations for this job:
 ========================================================
  
                  Total CPU time used (sec):     1326.282
                            User time (sec):     1306.718
                          System time (sec):       19.564
                         Elapsed time (sec):     1331.461
  
                   Maximum memory used (kb):      366880.
                   Average memory used (kb):           0.
  
                          Minor page faults:       254626
                          Major page faults:            1
                 Voluntary context switches:         1447
