       N       E                     dE             d eps       ncg     rms          rms(c)
DAV:   1    -0.888588702257E+03   -0.88859E+03   -0.76822E-05  2304   0.444E-02    0.927E-02
RMM:   2    -0.888588664185E+03    0.38072E-04   -0.96451E-05  1549   0.202E-02
   1 F= -.90971228E+03 E0= -.90971228E+03  d E =-.909712E+03  mag=    -2.0000
       N       E                     dE             d eps       ncg     rms          rms(c)
DAV:   1    -0.888588046558E+03    0.65570E-03   -0.10722E+00  2528   0.695E-01    0.445E-01
RMM:   2    -0.888590284737E+03   -0.22382E-02   -0.37031E-02  3155   0.184E-01    0.327E-01
RMM:   3    -0.888589521597E+03    0.76314E-03   -0.41184E-03  2563   0.494E-02    0.213E-01
RMM:   4    -0.888589166660E+03    0.35494E-03   -0.18027E-03  2033   0.469E-02    0.911E-02
RMM:   5    -0.888589193325E+03   -0.26665E-04   -0.35231E-04  1557   0.269E-02
   2 F= -.90971317E+03 E0= -.90971317E+03  d E =-.885246E-03  mag=    -2.0000
       N       E                     dE             d eps       ncg     rms          rms(c)
DAV:   1    -0.888593880391E+03   -0.47137E-02   -0.25195E-01  2848   0.343E-01    0.219E-01
RMM:   2    -0.888594334783E+03   -0.45439E-03   -0.86061E-03  2662   0.892E-02    0.157E-01
RMM:   3    -0.888594093759E+03    0.24102E-03   -0.10503E-03  1826   0.326E-02    0.991E-02
RMM:   4    -0.888594016120E+03    0.77639E-04   -0.46701E-04  1525   0.311E-02
   3 F= -.90971782E+03 E0= -.90971782E+03  d E =-.553543E-02  mag=    -2.0000
       N       E                     dE             d eps       ncg     rms          rms(c)
DAV:   1    -0.888594710246E+03   -0.61649E-03   -0.76944E-02  2512   0.342E-01    0.921E-02
RMM:   2    -0.888595020557E+03   -0.31031E-03   -0.44520E-03  2980   0.123E-01    0.690E-02
RMM:   3    -0.888595055302E+03   -0.34745E-04   -0.57026E-04  1978   0.283E-02
   4 F= -.90971920E+03 E0= -.90971920E+03  d E =-.137833E-02  mag=    -2.0000
       N       E                     dE             d eps       ncg     rms          rms(c)
DAV:   1    -0.888595273534E+03   -0.25298E-03   -0.66587E-02  2448   0.314E-01    0.978E-02
RMM:   2    -0.888595593432E+03   -0.31990E-03   -0.40090E-03  2987   0.115E-01    0.853E-02
RMM:   3    -0.888595662856E+03   -0.69424E-04   -0.78469E-04  2124   0.296E-02
   5 F= -.90972011E+03 E0= -.90972011E+03  d E =-.229325E-02  mag=    -2.0000
       N       E                     dE             d eps       ncg     rms          rms(c)
DAV:   1    -0.888594429293E+03    0.11641E-02   -0.26200E-01  2448   0.620E-01    0.179E-01
RMM:   2    -0.888595634877E+03   -0.12056E-02   -0.15266E-02  3056   0.224E-01    0.155E-01
RMM:   3    -0.888595956824E+03   -0.32195E-03   -0.36951E-03  3261   0.545E-02    0.135E-01
RMM:   4    -0.888595985323E+03   -0.28499E-04   -0.10085E-03  2504   0.391E-02    0.970E-02
RMM:   5    -0.888596103533E+03   -0.11821E-03   -0.78051E-04  2321   0.345E-02    0.539E-02
RMM:   6    -0.888596110634E+03   -0.71005E-05   -0.17983E-04  1600   0.283E-02
   6 F= -.90972117E+03 E0= -.90972117E+03  d E =-.335575E-02  mag=    -2.0000
       N       E                     dE             d eps       ncg     rms          rms(c)
DAV:   1    -0.888596415963E+03   -0.31243E-03   -0.22208E-01  2848   0.492E-01    0.152E-01
RMM:   2    -0.888596966412E+03   -0.55045E-03   -0.69550E-03  3002   0.125E-01    0.970E-02
RMM:   3    -0.888597033990E+03   -0.67579E-04   -0.78692E-04  2024   0.305E-02
   7 F= -.90972249E+03 E0= -.90972249E+03  d E =-.131297E-02  mag=    -2.0000
       N       E                     dE             d eps       ncg     rms          rms(c)
DAV:   1    -0.888597067474E+03   -0.10106E-03   -0.18412E-02  3520   0.145E-01    0.758E-02
RMM:   2    -0.888597091971E+03   -0.24497E-04   -0.52319E-04  1621   0.425E-02
   8 F= -.90972266E+03 E0= -.90972266E+03  d E =-.148235E-02  mag=    -2.0000
       N       E                     dE             d eps       ncg     rms          rms(c)
DAV:   1    -0.888597580195E+03   -0.51272E-03   -0.99350E-02  2496   0.336E-01    0.116E-01
RMM:   2    -0.888597779166E+03   -0.19897E-03   -0.27675E-03  2670   0.824E-02    0.828E-02
RMM:   3    -0.888597829570E+03   -0.50404E-04   -0.29753E-04  1495   0.242E-02
   9 F= -.90972367E+03 E0= -.90972367E+03  d E =-.101225E-02  mag=    -2.0000
       N       E                     dE             d eps       ncg     rms          rms(c)
DAV:   1    -0.888597472882E+03    0.30628E-03   -0.34456E-01  2432   0.626E-01    0.182E-01
RMM:   2    -0.888598180283E+03   -0.70740E-03   -0.90972E-03  2896   0.153E-01    0.127E-01
RMM:   3    -0.888598276482E+03   -0.96199E-04   -0.11128E-03  2213   0.391E-02    0.100E-01
RMM:   4    -0.888598353359E+03   -0.76877E-04   -0.23855E-04  1563   0.287E-02
  10 F= -.90972470E+03 E0= -.90972470E+03  d E =-.204899E-02  mag=    -2.0000
       N       E                     dE             d eps       ncg     rms          rms(c)
DAV:   1    -0.888598084455E+03    0.19203E-03   -0.61588E-02  3056   0.265E-01    0.900E-02
RMM:   2    -0.888598204462E+03   -0.12001E-03   -0.17809E-03  2345   0.685E-02    0.613E-02
RMM:   3    -0.888598238422E+03   -0.33960E-04   -0.28100E-04  1532   0.254E-02
  11 F= -.90972481E+03 E0= -.90972481E+03  d E =-.215210E-02  mag=    -2.0000
       N       E                     dE             d eps       ncg     rms          rms(c)
DAV:   1    -0.888598327422E+03   -0.12296E-03   -0.12830E-02  3392   0.126E-01    0.351E-02
RMM:   2    -0.888598374967E+03   -0.47546E-04   -0.28804E-04  1474   0.299E-02
  12 F= -.90972485E+03 E0= -.90972485E+03  d E =-.219020E-02  mag=    -2.0000
       N       E                     dE             d eps       ncg     rms          rms(c)
DAV:   1    -0.888598335625E+03   -0.82031E-05   -0.36523E-03  2640   0.680E-02    0.238E-02
RMM:   2    -0.888598339717E+03   -0.40923E-05   -0.90681E-05  1283   0.207E-02
  13 F= -.90972486E+03 E0= -.90972486E+03  d E =-.220846E-02  mag=    -2.0000
       N       E                     dE             d eps       ncg     rms          rms(c)
DAV:   1    -0.888598599160E+03   -0.26353E-03   -0.42357E-02  2512   0.216E-01    0.637E-02
RMM:   2    -0.888598672427E+03   -0.73267E-04   -0.94428E-04  1905   0.512E-02
  14 F= -.90972537E+03 E0= -.90972537E+03  d E =-.510395E-03  mag=    -2.0000
       N       E                     dE             d eps       ncg     rms          rms(c)
DAV:   1    -0.888598549400E+03    0.49760E-04   -0.37822E-01  2432   0.640E-01    0.182E-01
RMM:   2    -0.888599324716E+03   -0.77532E-03   -0.93868E-03  2916   0.147E-01    0.126E-01
RMM:   3    -0.888599431676E+03   -0.10696E-03   -0.11244E-03  2051   0.365E-02    0.995E-02
RMM:   4    -0.888599528484E+03   -0.96808E-04   -0.28000E-04  1543   0.290E-02
  15 F= -.90972676E+03 E0= -.90972676E+03  d E =-.189942E-02  mag=    -2.0000
       N       E                     dE             d eps       ncg     rms          rms(c)
DAV:   1    -0.888596417944E+03    0.30137E-02   -0.14992E+00  2432   0.127E+00    0.355E-01
RMM:   2    -0.888599478597E+03   -0.30607E-02   -0.37163E-02  2916   0.295E-01    0.223E-01
RMM:   3    -0.888599953791E+03   -0.47519E-03   -0.47096E-03  3159   0.734E-02    0.177E-01
RMM:   4    -0.888600125752E+03   -0.17196E-03   -0.95268E-04  2229   0.364E-02    0.112E-01
RMM:   5    -0.888600292718E+03   -0.16697E-03   -0.28495E-04  1583   0.311E-02    0.497E-02
RMM:   6    -0.888600316548E+03   -0.23830E-04   -0.14223E-04  1522   0.290E-02
  16 F= -.90972862E+03 E0= -.90972862E+03  d E =-.375284E-02  mag=    -2.0000
       N       E                     dE             d eps       ncg     rms          rms(c)
DAV:   1    -0.888581726828E+03    0.18566E-01   -0.60105E+00  2432   0.254E+00    0.676E-01
RMM:   2    -0.888595146134E+03   -0.13419E-01   -0.14582E-01  2930   0.582E-01    0.414E-01
RMM:   3    -0.888596816795E+03   -0.16707E-02   -0.17983E-02  3356   0.145E-01    0.326E-01
RMM:   4    -0.888597142759E+03   -0.32596E-03   -0.40893E-03  3429   0.596E-02    0.220E-01
RMM:   5    -0.888597526311E+03   -0.38355E-03   -0.12409E-03  2712   0.392E-02    0.111E-01
RMM:   6    -0.888597706383E+03   -0.18007E-03   -0.64770E-04  2060   0.315E-02    0.507E-02
RMM:   7    -0.888597746348E+03   -0.39965E-04   -0.16690E-04  1535   0.287E-02
  17 F= -.90972817E+03 E0= -.90972817E+03  d E =-.331095E-02  mag=    -2.0000
       N       E                     dE             d eps       ncg     rms          rms(c)
DAV:   1    -0.888593973602E+03    0.37328E-02   -0.24580E+00  2624   0.163E+00    0.431E-01
RMM:   2    -0.888599231525E+03   -0.52579E-02   -0.58413E-02  2895   0.369E-01    0.261E-01
RMM:   3    -0.888599784462E+03   -0.55294E-03   -0.61852E-03  2947   0.880E-02    0.207E-01
RMM:   4    -0.888599877863E+03   -0.93401E-04   -0.99256E-04  2002   0.395E-02
  18 F= -.90972895E+03 E0= -.90972895E+03  d E =-.408178E-02  mag=    -2.0000
       N       E                     dE             d eps       ncg     rms          rms(c)
DAV:   1    -0.888600539736E+03   -0.75527E-03   -0.44739E-02  3024   0.192E-01    0.870E-02
RMM:   2    -0.888600704060E+03   -0.16432E-03   -0.12367E-03  1920   0.532E-02    0.587E-02
RMM:   3    -0.888600725530E+03   -0.21470E-04   -0.23578E-04  1476   0.271E-02
  19 F= -.90972992E+03 E0= -.90972992E+03  d E =-.970543E-03  mag=    -2.0000
       N       E                     dE             d eps       ncg     rms          rms(c)
DAV:   1    -0.888600829284E+03   -0.12522E-03   -0.20596E-02  3008   0.135E-01    0.629E-02
RMM:   2    -0.888600872133E+03   -0.42849E-04   -0.60458E-04  1636   0.386E-02
  20 F= -.90973015E+03 E0= -.90973015E+03  d E =-.120008E-02  mag=    -2.0000
       N       E                     dE             d eps       ncg     rms          rms(c)
DAV:   1    -0.888601439041E+03   -0.60976E-03   -0.53155E-02  2576   0.234E-01    0.805E-02
RMM:   2    -0.888601561260E+03   -0.12222E-03   -0.14870E-03  2294   0.653E-02    0.640E-02
RMM:   3    -0.888601585744E+03   -0.24484E-04   -0.23768E-04  1529   0.260E-02
  21 F= -.90973098E+03 E0= -.90973098E+03  d E =-.833125E-03  mag=    -2.0000
       N       E                     dE             d eps       ncg     rms          rms(c)
DAV:   1    -0.888601471209E+03    0.90051E-04   -0.40723E-01  2432   0.647E-01    0.200E-01
RMM:   2    -0.888602348198E+03   -0.87699E-03   -0.11384E-02  2937   0.174E-01    0.155E-01
RMM:   3    -0.888602490917E+03   -0.14272E-03   -0.16552E-03  2403   0.465E-02    0.122E-01
RMM:   4    -0.888602556299E+03   -0.65382E-04   -0.33248E-04  1653   0.316E-02
  22 F= -.90973228E+03 E0= -.90973228E+03  d E =-.213517E-02  mag=    -2.0000
       N       E                     dE             d eps       ncg     rms          rms(c)
DAV:   1    -0.888602408697E+03    0.82220E-04   -0.71372E-02  3040   0.271E-01    0.104E-01
RMM:   2    -0.888602529982E+03   -0.12129E-03   -0.23551E-03  2609   0.788E-02    0.751E-02
RMM:   3    -0.888602572042E+03   -0.42060E-04   -0.44511E-04  1787   0.267E-02
  23 F= -.90973244E+03 E0= -.90973244E+03  d E =-.229052E-02  mag=    -2.0000
       N       E                     dE             d eps       ncg     rms          rms(c)
DAV:   1    -0.888602627471E+03   -0.97488E-04   -0.13874E-02  3392   0.126E-01    0.445E-02
RMM:   2    -0.888602670984E+03   -0.43513E-04   -0.35541E-04  1593   0.337E-02
  24 F= -.90973247E+03 E0= -.90973247E+03  d E =-.232831E-02  mag=    -2.0000
       N       E                     dE             d eps       ncg     rms          rms(c)
DAV:   1    -0.888602662183E+03   -0.34712E-04   -0.44758E-03  3056   0.722E-02    0.311E-02
RMM:   2    -0.888602665374E+03   -0.31907E-05   -0.11541E-04  1340   0.233E-02
  25 F= -.90973250E+03 E0= -.90973250E+03  d E =-.235782E-02  mag=    -2.0000
       N       E                     dE             d eps       ncg     rms          rms(c)
DAV:   1    -0.888602921566E+03   -0.25938E-03   -0.44384E-02  2560   0.203E-01    0.696E-02
RMM:   2    -0.888603009693E+03   -0.88127E-04   -0.10335E-03  1844   0.506E-02    0.551E-02
RMM:   3    -0.888603028444E+03   -0.18751E-04   -0.14120E-04  1450   0.256E-02
  26 F= -.90973295E+03 E0= -.90973295E+03  d E =-.444619E-03  mag=    -2.0000
       N       E                     dE             d eps       ncg     rms          rms(c)
DAV:   1    -0.888602588312E+03    0.42138E-03   -0.39519E-01  2432   0.601E-01    0.193E-01
RMM:   2    -0.888603415258E+03   -0.82695E-03   -0.99483E-03  2902   0.146E-01    0.136E-01
RMM:   3    -0.888603539686E+03   -0.12443E-03   -0.10888E-03  2149   0.380E-02    0.106E-01
RMM:   4    -0.888603641569E+03   -0.10188E-03   -0.25796E-04  1574   0.297E-02    0.664E-02
RMM:   5    -0.888603681045E+03   -0.39476E-04   -0.12303E-04  1506   0.227E-02
  27 F= -.90973384E+03 E0= -.90973384E+03  d E =-.134091E-02  mag=    -2.0000
       N       E                     dE             d eps       ncg     rms          rms(c)
DAV:   1    -0.888598396177E+03    0.52454E-02   -0.15751E+00  2432   0.120E+00    0.365E-01
RMM:   2    -0.888601795019E+03   -0.33988E-02   -0.38960E-02  2948   0.287E-01    0.242E-01
RMM:   3    -0.888602337579E+03   -0.54256E-03   -0.54017E-03  3194   0.728E-02    0.192E-01
RMM:   4    -0.888602514192E+03   -0.17661E-03   -0.12032E-03  2384   0.412E-02    0.129E-01
RMM:   5    -0.888602692623E+03   -0.17843E-03   -0.35513E-04  1697   0.316E-02    0.618E-02
RMM:   6    -0.888602714876E+03   -0.22253E-04   -0.19801E-04  1573   0.322E-02
  28 F= -.90973363E+03 E0= -.90973363E+03  d E =-.112308E-02  mag=    -2.0000
       N       E                     dE             d eps       ncg     rms          rms(c)
DAV:   1    -0.888601971230E+03    0.72139E-03   -0.69412E-01  2720   0.795E-01    0.237E-01
RMM:   2    -0.888603482462E+03   -0.15112E-02   -0.16759E-02  2912   0.184E-01    0.151E-01
RMM:   3    -0.888603643272E+03   -0.16081E-03   -0.17343E-03  2190   0.427E-02    0.120E-01
RMM:   4    -0.888603687248E+03   -0.43975E-04   -0.38646E-04  1583   0.322E-02
  29 F= -.90973401E+03 E0= -.90973401E+03  d E =-.151057E-02  mag=    -2.0000
       N       E                     dE             d eps       ncg     rms          rms(c)
DAV:   1    -0.888604009171E+03   -0.36590E-03   -0.14546E-01  2704   0.327E-01    0.104E-01
RMM:   2    -0.888604383574E+03   -0.37440E-03   -0.30150E-03  2354   0.793E-02    0.453E-02
RMM:   3    -0.888604419807E+03   -0.36233E-04   -0.34273E-04  1468   0.272E-02
  30 F= -.90973487E+03 E0= -.90973487E+03  d E =-.854277E-03  mag=    -2.0000
       N       E                     dE             d eps       ncg     rms          rms(c)
DAV:   1    -0.888604162537E+03    0.22104E-03   -0.46920E-01  2464   0.586E-01    0.213E-01
RMM:   2    -0.888605054354E+03   -0.89182E-03   -0.10342E-02  2817   0.138E-01    0.122E-01
RMM:   3    -0.888605186388E+03   -0.13203E-03   -0.10651E-03  1978   0.388E-02    0.882E-02
RMM:   4    -0.888605304850E+03   -0.11846E-03   -0.23580E-04  1560   0.269E-02    0.609E-02
RMM:   5    -0.888605365340E+03   -0.60490E-04   -0.92996E-05  1485   0.194E-02
  31 F= -.90973632E+03 E0= -.90973632E+03  d E =-.231058E-02  mag=    -2.0000
       N       E                     dE             d eps       ncg     rms          rms(c)
DAV:   1    -0.888601278759E+03    0.40261E-02   -0.18649E+00  2432   0.116E+00    0.405E-01
RMM:   2    -0.888605171119E+03   -0.38924E-02   -0.41962E-02  2861   0.265E-01    0.220E-01
RMM:   3    -0.888605670875E+03   -0.49976E-03   -0.41959E-03  2947   0.700E-02    0.164E-01
RMM:   4    -0.888605921524E+03   -0.25065E-03   -0.91942E-04  1939   0.379E-02    0.107E-01
RMM:   5    -0.888606115775E+03   -0.19425E-03   -0.26296E-04  1593   0.298E-02    0.511E-02
RMM:   6    -0.888606186243E+03   -0.70468E-04   -0.15280E-04  1536   0.264E-02
  32 F= -.90973760E+03 E0= -.90973760E+03  d E =-.358632E-02  mag=    -2.0000
       N       E                     dE             d eps       ncg     rms          rms(c)
DAV:   1    -0.888606595763E+03   -0.47999E-03   -0.30734E-01  2800   0.423E-01    0.171E-01
RMM:   2    -0.888607159127E+03   -0.56336E-03   -0.67016E-03  2646   0.887E-02    0.880E-02
RMM:   3    -0.888607247427E+03   -0.88301E-04   -0.59758E-04  1681   0.290E-02
  33 F= -.90973877E+03 E0= -.90973877E+03  d E =-.117462E-02  mag=    -2.0000
       N       E                     dE             d eps       ncg     rms          rms(c)
DAV:   1    -0.888607068631E+03    0.90496E-04   -0.46458E-01  2464   0.522E-01    0.232E-01
RMM:   2    -0.888607885312E+03   -0.81668E-03   -0.10727E-02  2943   0.112E-01    0.132E-01
RMM:   3    -0.888608051358E+03   -0.16605E-03   -0.85488E-04  1880   0.323E-02    0.936E-02
RMM:   4    -0.888608210374E+03   -0.15902E-03   -0.22910E-04  1593   0.268E-02    0.618E-02
RMM:   5    -0.888608304503E+03   -0.94129E-04   -0.10316E-04  1521   0.202E-02
  34 F= -.90973997E+03 E0= -.90973997E+03  d E =-.236916E-02  mag=    -2.0000
       N       E                     dE             d eps       ncg     rms          rms(c)
DAV:   1    -0.888603896042E+03    0.43143E-02   -0.18534E+00  2432   0.104E+00    0.419E-01
RMM:   2    -0.888607572523E+03   -0.36765E-02   -0.40385E-02  2997   0.217E-01    0.210E-01
RMM:   3    -0.888608000035E+03   -0.42751E-03   -0.35858E-03  2623   0.555E-02    0.147E-01
RMM:   4    -0.888608228850E+03   -0.22882E-03   -0.68537E-04  1735   0.356E-02    0.101E-01
RMM:   5    -0.888608429433E+03   -0.20058E-03   -0.23141E-04  1580   0.273E-02    0.629E-02
RMM:   6    -0.888608531551E+03   -0.10212E-03   -0.16109E-04  1543   0.271E-02    0.269E-02
RMM:   7    -0.888608555700E+03   -0.24148E-04   -0.77327E-05  1493   0.204E-02
  35 F= -.90974049E+03 E0= -.90974049E+03  d E =-.288885E-02  mag=    -2.0000
       N       E                     dE             d eps       ncg     rms          rms(c)
DAV:   1    -0.888608325842E+03    0.20571E-03   -0.19583E-01  2992   0.338E-01    0.138E-01
RMM:   2    -0.888608667610E+03   -0.34177E-03   -0.40142E-03  2165   0.666E-02    0.669E-02
RMM:   3    -0.888608697848E+03   -0.30238E-04   -0.29318E-04  1455   0.267E-02
  36 F= -.90974054E+03 E0= -.90974054E+03  d E =-.294478E-02  mag=    -2.0000
       N       E                     dE             d eps       ncg     rms          rms(c)
DAV:   1    -0.888608933998E+03   -0.26639E-03   -0.25898E-01  2544   0.366E-01    0.148E-01
RMM:   2    -0.888609516944E+03   -0.58295E-03   -0.55757E-03  2482   0.783E-02    0.620E-02
RMM:   3    -0.888609574845E+03   -0.57901E-04   -0.49228E-04  1551   0.289E-02
  37 F= -.90974152E+03 E0= -.90974152E+03  d E =-.973516E-03  mag=    -2.0000
       N       E                     dE             d eps       ncg     rms          rms(c)
DAV:   1    -0.888609708017E+03   -0.19107E-03   -0.18899E-01  2704   0.318E-01    0.152E-01
RMM:   2    -0.888609998392E+03   -0.29038E-03   -0.39238E-03  2215   0.684E-02    0.858E-02
RMM:   3    -0.888610070416E+03   -0.72024E-04   -0.41946E-04  1553   0.298E-02
  38 F= -.90974209E+03 E0= -.90974209E+03  d E =-.155004E-02  mag=    -2.0000
       N       E                     dE             d eps       ncg     rms          rms(c)
DAV:   1    -0.888609099220E+03    0.89917E-03   -0.75025E-01  2464   0.626E-01    0.287E-01
RMM:   2    -0.888610403013E+03   -0.13038E-02   -0.16382E-02  2938   0.144E-01    0.155E-01
RMM:   3    -0.888610666602E+03   -0.26359E-03   -0.16541E-03  2075   0.410E-02    0.109E-01
RMM:   4    -0.888610869164E+03   -0.20256E-03   -0.34726E-04  1646   0.291E-02    0.763E-02
RMM:   5    -0.888611001899E+03   -0.13274E-03   -0.12009E-04  1504   0.212E-02    0.423E-02
RMM:   6    -0.888611056527E+03   -0.54628E-04   -0.91501E-05  1501   0.221E-02
  39 F= -.90974324E+03 E0= -.90974324E+03  d E =-.269488E-02  mag=    -2.0000
       N       E                     dE             d eps       ncg     rms          rms(c)
DAV:   1    -0.888603590913E+03    0.74110E-02   -0.29977E+00  2464   0.125E+00    0.535E-01
RMM:   2    -0.888609704845E+03   -0.61139E-02   -0.64786E-02  2988   0.277E-01    0.263E-01
RMM:   3    -0.888610543509E+03   -0.83866E-03   -0.67429E-03  2965   0.740E-02    0.182E-01
RMM:   4    -0.888610876629E+03   -0.33312E-03   -0.12855E-03  2074   0.414E-02    0.128E-01
RMM:   5    -0.888611153138E+03   -0.27651E-03   -0.35450E-04  1679   0.304E-02    0.753E-02
RMM:   6    -0.888611308833E+03   -0.15570E-03   -0.21892E-04  1570   0.288E-02    0.306E-02
RMM:   7    -0.888611340152E+03   -0.31318E-04   -0.96367E-05  1499   0.234E-02
  40 F= -.90974383E+03 E0= -.90974383E+03  d E =-.328290E-02  mag=    -2.0000
       N       E                     dE             d eps       ncg     rms          rms(c)
DAV:   1    -0.888610314877E+03    0.99396E-03   -0.10362E+00  2752   0.662E-01    0.318E-01
RMM:   2    -0.888612230765E+03   -0.19159E-02   -0.20847E-02  2971   0.125E-01    0.150E-01
RMM:   3    -0.888612500339E+03   -0.26957E-03   -0.17416E-03  1913   0.363E-02    0.103E-01
RMM:   4    -0.888612677812E+03   -0.17747E-03   -0.35954E-04  1602   0.276E-02    0.743E-02
RMM:   5    -0.888612792003E+03   -0.11419E-03   -0.10638E-04  1497   0.216E-02    0.476E-02
RMM:   6    -0.888612868634E+03   -0.76631E-04   -0.10570E-04  1500   0.218E-02
  41 F= -.90974564E+03 E0= -.90974564E+03  d E =-.181050E-02  mag=    -2.0000
       N       E                     dE             d eps       ncg     rms          rms(c)
DAV:   1    -0.888593147798E+03    0.19644E-01   -0.93217E+00  2464   0.199E+00    0.952E-01
RMM:   2    -0.888611896237E+03   -0.18748E-01   -0.18854E-01  3030   0.377E-01    0.446E-01
RMM:   3    -0.888614128879E+03   -0.22326E-02   -0.16045E-02  3264   0.101E-01    0.306E-01
RMM:   4    -0.888615054923E+03   -0.92604E-03   -0.31697E-03  2443   0.462E-02    0.218E-01
RMM:   5    -0.888615659460E+03   -0.60454E-03   -0.67364E-04  1798   0.338E-02    0.120E-01
RMM:   6    -0.888616067050E+03   -0.40759E-03   -0.45950E-04  1657   0.332E-02    0.464E-02
RMM:   7    -0.888616122889E+03   -0.55839E-04   -0.11895E-04  1513   0.259E-02
  42 F= -.90974970E+03 E0= -.90974970E+03  d E =-.586775E-02  mag=    -2.0000
       N       E                     dE             d eps       ncg     rms          rms(c)
DAV:   1    -0.888519608335E+03    0.96459E-01   -0.37229E+01  2432   0.401E+00    0.192E+00
RMM:   2    -0.888602665263E+03   -0.83057E-01   -0.82184E-01  3032   0.769E-01    0.887E-01
RMM:   3    -0.888609938877E+03   -0.72736E-02   -0.52953E-02  3420   0.205E-01    0.620E-01
RMM:   4    -0.888613091314E+03   -0.31524E-02   -0.13251E-02  3454   0.811E-02    0.439E-01
RMM:   5    -0.888615329860E+03   -0.22385E-02   -0.31102E-03  3017   0.509E-02    0.243E-01
RMM:   6    -0.888616498299E+03   -0.11684E-02   -0.19347E-03  2435   0.444E-02    0.945E-02
RMM:   7    -0.888616656250E+03   -0.15795E-03   -0.41828E-04  1831   0.335E-02    0.550E-02
RMM:   8    -0.888616687708E+03   -0.31458E-04   -0.22703E-04  1576   0.251E-02
  43 F= -.90974758E+03 E0= -.90974758E+03  d E =-.375462E-02  mag=    -2.0000
       N       E                     dE             d eps       ncg     rms          rms(c)
DAV:   1    -0.888609527516E+03    0.71287E-02   -0.45592E+00  2688   0.139E+00    0.666E-01
RMM:   2    -0.888618154915E+03   -0.86274E-02   -0.89324E-02  3034   0.240E-01    0.313E-01
RMM:   3    -0.888619158112E+03   -0.10032E-02   -0.67648E-03  2379   0.652E-02    0.212E-01
RMM:   4    -0.888619683719E+03   -0.52561E-03   -0.15187E-03  1792   0.396E-02    0.148E-01
RMM:   5    -0.888620080061E+03   -0.39634E-03   -0.36040E-04  1608   0.270E-02    0.872E-02
RMM:   6    -0.888620284129E+03   -0.20407E-03   -0.23682E-04  1559   0.277E-02    0.332E-02
RMM:   7    -0.888620331104E+03   -0.46974E-04   -0.84618E-05  1489   0.191E-02
  44 F= -.90975206E+03 E0= -.90975206E+03  d E =-.448124E-02  mag=    -2.0000
       N       E                     dE             d eps       ncg     rms          rms(c)
DAV:   1    -0.888559465520E+03    0.60819E-01   -0.26070E+01  2432   0.332E+00    0.158E+00
RMM:   2    -0.888613322780E+03   -0.53857E-01   -0.53428E-01  3045   0.579E-01    0.744E-01
RMM:   3    -0.888618049716E+03   -0.47269E-02   -0.33307E-02  3271   0.155E-01    0.509E-01
RMM:   4    -0.888620398742E+03   -0.23490E-02   -0.86838E-03  2927   0.642E-02    0.354E-01
RMM:   5    -0.888621936643E+03   -0.15379E-02   -0.19919E-03  2304   0.435E-02    0.198E-01
RMM:   6    -0.888622757182E+03   -0.82054E-03   -0.11840E-03  1803   0.398E-02    0.769E-02
RMM:   7    -0.888622863576E+03   -0.10639E-03   -0.22030E-04  1571   0.318E-02    0.421E-02
RMM:   8    -0.888622889362E+03   -0.25785E-04   -0.14015E-04  1541   0.214E-02
  45 F= -.90975665E+03 E0= -.90975665E+03  d E =-.907125E-02  mag=    -2.0000
       N       E                     dE             d eps       ncg     rms          rms(c)
DAV:   1    -0.888623307464E+03   -0.44389E-03   -0.83673E-01  2656   0.852E-01    0.284E-01
RMM:   2    -0.888625272743E+03   -0.19653E-02   -0.24717E-02  3018   0.232E-01    0.187E-01
RMM:   3    -0.888625518983E+03   -0.24624E-03   -0.28717E-03  2948   0.542E-02    0.139E-01
RMM:   4    -0.888625614350E+03   -0.95367E-04   -0.62250E-04  1892   0.362E-02
  46 F= -.90976012E+03 E0= -.90976012E+03  d E =-.347076E-02  mag=    -2.0000
       N       E                     dE             d eps       ncg     rms          rms(c)
DAV:   1    -0.888623377040E+03    0.21419E-02   -0.12570E+00  2496   0.104E+00    0.368E-01
RMM:   2    -0.888626105652E+03   -0.27286E-02   -0.37298E-02  2997   0.286E-01    0.255E-01
RMM:   3    -0.888626582901E+03   -0.47725E-03   -0.54346E-03  3441   0.708E-02    0.192E-01
RMM:   4    -0.888626766065E+03   -0.18316E-03   -0.12866E-03  2501   0.383E-02    0.142E-01
RMM:   5    -0.888627050578E+03   -0.28451E-03   -0.68782E-04  2170   0.361E-02    0.659E-02
RMM:   6    -0.888627102476E+03   -0.51898E-04   -0.24306E-04  1647   0.293E-02
  47 F= -.90976253E+03 E0= -.90976253E+03  d E =-.587948E-02  mag=    -2.0000
       N       E                     dE             d eps       ncg     rms          rms(c)
DAV:   1    -0.888626519706E+03    0.53087E-03   -0.80151E-01  2816   0.970E-01    0.276E-01
RMM:   2    -0.888628405342E+03   -0.18856E-02   -0.23275E-02  2926   0.249E-01    0.196E-01
RMM:   3    -0.888628720451E+03   -0.31511E-03   -0.37678E-03  3145   0.620E-02    0.159E-01
RMM:   4    -0.888628822365E+03   -0.10191E-03   -0.10869E-03  2479   0.393E-02    0.101E-01
RMM:   5    -0.888628912211E+03   -0.89846E-04   -0.38569E-04  1690   0.319E-02
  48 F= -.90976504E+03 E0= -.90976504E+03  d E =-.250662E-02  mag=    -2.0000
       N       E                     dE             d eps       ncg     rms          rms(c)
DAV:   1    -0.888628835997E+03   -0.13632E-04   -0.16060E-02  3408   0.142E-01    0.624E-02
RMM:   2    -0.888628875140E+03   -0.39143E-04   -0.71395E-04  2027   0.492E-02
  49 F= -.90976510E+03 E0= -.90976510E+03  d E =-.256668E-02  mag=    -2.0000
       N       E                     dE             d eps       ncg     rms          rms(c)
DAV:   1    -0.888628853983E+03   -0.17985E-04   -0.34516E-01  2528   0.669E-01    0.181E-01
RMM:   2    -0.888629676398E+03   -0.82242E-03   -0.97152E-03  2859   0.170E-01    0.141E-01
RMM:   3    -0.888629818742E+03   -0.14234E-03   -0.15646E-03  2549   0.435E-02    0.116E-01
RMM:   4    -0.888629883137E+03   -0.64395E-04   -0.38385E-04  1709   0.326E-02
  50 F= -.90976660E+03 E0= -.90976660E+03  d E =-.150012E-02  mag=    -2.0000
       N       E                     dE             d eps       ncg     rms          rms(c)
DAV:   1    -0.888627690354E+03    0.21284E-02   -0.70673E-01  2528   0.955E-01    0.254E-01
RMM:   2    -0.888629321180E+03   -0.16308E-02   -0.19884E-02  2855   0.244E-01    0.184E-01
RMM:   3    -0.888629672602E+03   -0.35142E-03   -0.37362E-03  3131   0.632E-02    0.151E-01
RMM:   4    -0.888629756245E+03   -0.83643E-04   -0.87544E-04  2273   0.384E-02
  51 F= -.90976718E+03 E0= -.90976718E+03  d E =-.208231E-02  mag=    -2.0000
       N       E                     dE             d eps       ncg     rms          rms(c)
DAV:   1    -0.888629947092E+03   -0.27449E-03   -0.45582E-02  3072   0.248E-01    0.581E-02
RMM:   2    -0.888630065797E+03   -0.11870E-03   -0.11694E-03  2279   0.614E-02    0.360E-02
RMM:   3    -0.888630074730E+03   -0.89329E-05   -0.16403E-04  1456   0.232E-02
  52 F= -.90976732E+03 E0= -.90976732E+03  d E =-.222505E-02  mag=    -2.0000
       N       E                     dE             d eps       ncg     rms          rms(c)
DAV:   1    -0.888630000463E+03    0.65333E-04   -0.74649E-03  3232   0.102E-01    0.307E-02
RMM:   2    -0.888630015118E+03   -0.14655E-04   -0.17365E-04  1359   0.278E-02
  53 F= -.90976734E+03 E0= -.90976734E+03  d E =-.223759E-02  mag=    -2.0000
       N       E                     dE             d eps       ncg     rms          rms(c)
DAV:   1    -0.888630062918E+03   -0.62455E-04   -0.22708E-03  2608   0.577E-02    0.209E-02
RMM:   2    -0.888630069686E+03   -0.67679E-05   -0.52928E-05  1273   0.159E-02
  54 F= -.90976735E+03 E0= -.90976735E+03  d E =-.225131E-02  mag=    -2.0000
       N       E                     dE             d eps       ncg     rms          rms(c)
DAV:   1    -0.888630499202E+03   -0.43628E-03   -0.80002E-02  2496   0.316E-01    0.821E-02
RMM:   2    -0.888630689765E+03   -0.19056E-03   -0.25966E-03  2626   0.869E-02    0.637E-02
RMM:   3    -0.888630712328E+03   -0.22563E-04   -0.29819E-04  1574   0.240E-02
  55 F= -.90976821E+03 E0= -.90976821E+03  d E =-.860395E-03  mag=    -2.0000
       N       E                     dE             d eps       ncg     rms          rms(c)
DAV:   1    -0.888630763424E+03   -0.73659E-04   -0.30622E-02  2640   0.201E-01    0.788E-02
RMM:   2    -0.888630829106E+03   -0.65682E-04   -0.10141E-03  2187   0.569E-02    0.668E-02
RMM:   3    -0.888630841300E+03   -0.12194E-04   -0.17912E-04  1507   0.250E-02
  56 F= -.90976847E+03 E0= -.90976847E+03  d E =-.112238E-02  mag=    -2.0000
       N       E                     dE             d eps       ncg     rms          rms(c)
DAV:   1    -0.888630834584E+03   -0.54785E-05   -0.69141E-03  3328   0.979E-02    0.398E-02
RMM:   2    -0.888630844213E+03   -0.96289E-05   -0.20648E-04  1481   0.296E-02
  57 F= -.90976854E+03 E0= -.90976854E+03  d E =-.118800E-02  mag=    -2.0000
       N       E                     dE             d eps       ncg     rms          rms(c)
DAV:   1    -0.888630978621E+03   -0.14404E-03   -0.66139E-02  2496   0.301E-01    0.782E-02
RMM:   2    -0.888631162743E+03   -0.18412E-03   -0.23775E-03  2733   0.852E-02    0.784E-02
RMM:   3    -0.888631185418E+03   -0.22675E-04   -0.31691E-04  1648   0.234E-02
  58 F= -.90976904E+03 E0= -.90976904E+03  d E =-.497141E-03  mag=    -2.0000
       N       E                     dE             d eps       ncg     rms          rms(c)
DAV:   1    -0.888631190914E+03   -0.28171E-04   -0.20460E-04  2480   0.349E-02    0.561E-02
RMM:   2    -0.888631195037E+03   -0.41230E-05   -0.73638E-05  1357   0.221E-02
  59 F= -.90976905E+03 E0= -.90976905E+03  d E =-.512151E-03  mag=    -2.0000
       N       E                     dE             d eps       ncg     rms          rms(c)
DAV:   1    -0.888631287733E+03   -0.96819E-04   -0.25073E-02  2576   0.186E-01    0.575E-02
RMM:   2    -0.888631334898E+03   -0.47165E-04   -0.61810E-04  1879   0.499E-02
  60 F= -.90976934E+03 E0= -.90976934E+03  d E =-.292067E-03  mag=    -2.0000
       N       E                     dE             d eps       ncg     rms          rms(c)
DAV:   1    -0.888631307494E+03   -0.19761E-04   -0.40582E-02  2672   0.237E-01    0.887E-02
RMM:   2    -0.888631384198E+03   -0.76705E-04   -0.10392E-03  2162   0.564E-02    0.860E-02
RMM:   3    -0.888631395539E+03   -0.11341E-04   -0.15280E-04  1489   0.238E-02
  61 F= -.90976960E+03 E0= -.90976960E+03  d E =-.545176E-03  mag=    -2.0000
       N       E                     dE             d eps       ncg     rms          rms(c)
DAV:   1    -0.888630627844E+03    0.75635E-03   -0.15759E-01  2432   0.463E-01    0.121E-01
RMM:   2    -0.888630973005E+03   -0.34516E-03   -0.43408E-03  2893   0.110E-01    0.135E-01
RMM:   3    -0.888631000458E+03   -0.27453E-04   -0.43851E-04  1749   0.266E-02
  62 F= -.90976959E+03 E0= -.90976959E+03  d E =-.535082E-03  mag=    -2.0000
       N       E                     dE             d eps       ncg     rms          rms(c)
DAV:   1    -0.888631156106E+03   -0.18310E-03   -0.73713E-02  3104   0.319E-01    0.847E-02
RMM:   2    -0.888631346283E+03   -0.19018E-03   -0.19358E-03  2413   0.758E-02    0.249E-02
RMM:   3    -0.888631369964E+03   -0.23681E-04   -0.19156E-04  1525   0.239E-02
  63 F= -.90976969E+03 E0= -.90976969E+03  d E =-.643466E-03  mag=    -2.0000
       N       E                     dE             d eps       ncg     rms          rms(c)
DAV:   1    -0.888631206808E+03    0.13948E-03   -0.17811E-02  3088   0.158E-01    0.394E-02
RMM:   2    -0.888631230411E+03   -0.23603E-04   -0.38523E-04  1593   0.381E-02
  64 F= -.90976969E+03 E0= -.90976969E+03  d E =-.634473E-03  mag=    -2.0000
       N       E                     dE             d eps       ncg     rms          rms(c)
DAV:   1    -0.888631316761E+03   -0.10995E-03   -0.53169E-03  2768   0.880E-02    0.219E-02
RMM:   2    -0.888631330310E+03   -0.13548E-04   -0.94797E-05  1264   0.208E-02
  65 F= -.90976971E+03 E0= -.90976971E+03  d E =-.662138E-03  mag=    -2.0000
       N       E                     dE             d eps       ncg     rms          rms(c)
DAV:   1    -0.888631293708E+03    0.23054E-04   -0.12847E-03  2000   0.441E-02    0.150E-02
RMM:   2    -0.888631295252E+03   -0.15448E-05   -0.28813E-05  1188   0.135E-02
  66 F= -.90976971E+03 E0= -.90976971E+03  d E =-.663196E-03  mag=    -2.0000
       N       E                     dE             d eps       ncg     rms          rms(c)
DAV:   1    -0.888631316714E+03   -0.23006E-04   -0.30788E-04  1936   0.218E-02    0.101E-02
RMM:   2    -0.888631318630E+03   -0.19161E-05   -0.78246E-06  1158   0.692E-03
  67 F= -.90976972E+03 E0= -.90976972E+03  d E =-.668637E-03  mag=    -2.0000
       N       E                     dE             d eps       ncg     rms          rms(c)
DAV:   1    -0.888631196498E+03    0.12022E-03   -0.26563E-02  2464   0.194E-01    0.374E-02
RMM:   2    -0.888631240049E+03   -0.43551E-04   -0.56941E-04  1829   0.484E-02
  68 F= -.90976986E+03 E0= -.90976986E+03  d E =-.144418E-03  mag=    -2.0000
       N       E                     dE             d eps       ncg     rms          rms(c)
DAV:   1    -0.888631225093E+03   -0.28595E-04   -0.27584E-03  3216   0.674E-02    0.407E-02
RMM:   2    -0.888631229252E+03   -0.41598E-05   -0.73663E-05  1275   0.199E-02
  69 F= -.90976992E+03 E0= -.90976992E+03  d E =-.198912E-03  mag=    -2.0000
       N       E                     dE             d eps       ncg     rms          rms(c)
DAV:   1    -0.888631170448E+03    0.54645E-04   -0.90355E-03  2544   0.113E-01    0.395E-02
RMM:   2    -0.888631175134E+03   -0.46859E-05   -0.19434E-04  1422   0.306E-02
  70 F= -.90977000E+03 E0= -.90977000E+03  d E =-.275383E-03  mag=    -2.0000
       N       E                     dE             d eps       ncg     rms          rms(c)
DAV:   1    -0.888630920328E+03    0.25012E-03   -0.37240E-02  2544   0.231E-01    0.713E-02
RMM:   2    -0.888630993397E+03   -0.73069E-04   -0.92657E-04  2142   0.580E-02
  71 F= -.90977007E+03 E0= -.90977007E+03  d E =-.354868E-03  mag=    -2.0000
       N       E                     dE             d eps       ncg     rms          rms(c)
DAV:   1    -0.888631071247E+03   -0.15092E-03   -0.42634E-03  2992   0.829E-02    0.499E-02
RMM:   2    -0.888631089596E+03   -0.18350E-04   -0.80418E-05  1318   0.206E-02
  72 F= -.90977008E+03 E0= -.90977008E+03  d E =-.362423E-03  mag=    -2.0000
       N       E                     dE             d eps       ncg     rms          rms(c)
DAV:   1    -0.888631051133E+03    0.20114E-04   -0.25816E-03  2432   0.618E-02    0.295E-02
RMM:   2    -0.888631047115E+03    0.40187E-05   -0.58638E-05  1219   0.193E-02
  73 F= -.90977011E+03 E0= -.90977011E+03  d E =-.392431E-03  mag=    -2.0000
       N       E                     dE             d eps       ncg     rms          rms(c)
DAV:   1    -0.888631062152E+03   -0.11019E-04   -0.77112E-03  2480   0.951E-02    0.392E-02
RMM:   2    -0.888631077953E+03   -0.15801E-04   -0.26604E-04  1496   0.322E-02
  74 F= -.90977023E+03 E0= -.90977023E+03  d E =-.116463E-03  mag=    -2.0000
