 vasp.5.3.5 31Mar14 (build May 27 2014 14:39:49) gamma-only                     
  
 executed on           LinuxIFORT date 2020.09.28  07:35:25
 running on   48 total cores
 distrk:  each k-point on   48 cores,    1 groups
 distr:  one band on NCORES_PER_BAND=   6 cores,    8 groups


--------------------------------------------------------------------------------------------------------


 INCAR:
 POTCAR:    PAW_PBE Ce 23Dec2003                  
 POTCAR:    PAW_PBE O 08Apr2002                   
 POTCAR:    PAW_PBE Pt 04Feb2005                  
 POTCAR:    PAW_PBE Ce 23Dec2003                  
   VRHFIN =Ce : [core= Kr 4d10]                                                 
   LEXCH  = PE                                                                  
   EATOM  =  1063.0861 eV,   78.1346 Ry                                         
                                                                                
   TITEL  = PAW_PBE Ce 23Dec2003                                                
   LULTRA =        F    use ultrasoft PP ?                                      
   IUNSCR =        1    unscreen: 0-lin 1-nonlin 2-no                           
   RPACOR =    1.800    partial core radius                                     
   POMASS =  140.115; ZVAL   =   12.000    mass and valenz                      
   RCORE  =    2.700    outmost cutoff radius                                   
   RWIGS  =    2.500; RWIGS  =    1.323    wigner-seitz radius (au A)           
   ENMAX  =  273.042; ENMIN  =  204.781 eV                                      
   RCLOC  =    1.810    cutoff for local pot                                    
   LCOR   =        T    correct aug charges                                     
   LPAW   =        T    paw PP                                                  
   EAUG   =  580.196                                                            
   DEXC   =    0.000                                                            
   RMAX   =    2.749    core radius for proj-oper                               
   RAUG   =    1.300    factor for augmentation sphere                          
   RDEP   =    2.810    radius for radial grids                                 
   RDEPT  =    2.162    core radius for aug-charge                              
                                                                                
   Atomic configuration                                                         
   14 entries                                                                   
     n  l   j            E        occ.                                          
     1  0  0.50    -40258.9816   2.0000                                         
     2  0  0.50     -6445.4884   2.0000                                         
     2  1  1.50     -5771.7470   6.0000                                         
     3  0  0.50     -1387.9739   2.0000                                         
     3  1  1.50     -1173.8158   6.0000                                         
     3  2  2.50      -869.9108  10.0000                                         
     4  0  0.50      -280.8706   2.0000                                         
     4  1  1.50      -210.9815   6.0000                                         
     4  2  2.50      -110.4558  10.0000                                         
     5  0  0.50       -40.5819   2.0000                                         
     6  0  0.50        -3.7444   2.0000                                         
     5  1  1.50       -23.2188   6.0000                                         
     5  2  2.50        -3.0598   1.0000                                         
     4  3  2.50        -5.3970   1.0000                                         
   Description                                                                  
     l       E           TYP  RCUT    TYP  RCUT                                 
     0    -40.5819164     23  1.500                                             
     0     -3.7443793     23  2.300                                             
     1    -23.2188445     23  2.000                                             
     1     40.8174780     23  2.300                                             
     2     -3.0597556     23  2.500                                             
     2     13.6058260     23  2.500                                             
     3     -5.3970469     23  2.700                                             
     3     -5.8505052     23  2.700                                             
  local pseudopotential read in
  partial core-charges read in
  partial kinetic energy density read in
  atomic valenz-charges read in
  non local Contribution for L=           0  read in
    real space projection operators read in
  non local Contribution for L=           0  read in
    real space projection operators read in
  non local Contribution for L=           1  read in
    real space projection operators read in
  non local Contribution for L=           1  read in
    real space projection operators read in
  non local Contribution for L=           2  read in
    real space projection operators read in
  non local Contribution for L=           2  read in
    real space projection operators read in
  non local Contribution for L=           3  read in
    real space projection operators read in
  non local Contribution for L=           3  read in
    real space projection operators read in
    PAW grid and wavefunctions read in
 
   number of l-projection  operators is LMAX  =           8
   number of lm-projection operators is LMMAX =          32
 
 POTCAR:    PAW_PBE O 08Apr2002                   
   VRHFIN =O: s2p4                                                              
   LEXCH  = PE                                                                  
   EATOM  =   432.3788 eV,   31.7789 Ry                                         
                                                                                
   TITEL  = PAW_PBE O 08Apr2002                                                 
   LULTRA =        F    use ultrasoft PP ?                                      
   IUNSCR =        1    unscreen: 0-lin 1-nonlin 2-no                           
   RPACOR =    1.200    partial core radius                                     
   POMASS =   16.000; ZVAL   =    6.000    mass and valenz                      
   RCORE  =    1.520    outmost cutoff radius                                   
   RWIGS  =    1.550; RWIGS  =    0.820    wigner-seitz radius (au A)           
   ENMAX  =  400.000; ENMIN  =  300.000 eV                                      
   ICORE  =        2    local potential                                         
   LCOR   =        T    correct aug charges                                     
   LPAW   =        T    paw PP                                                  
   EAUG   =  605.392                                                            
   DEXC   =    0.000                                                            
   RMAX   =    1.553    core radius for proj-oper                               
   RAUG   =    1.300    factor for augmentation sphere                          
   RDEP   =    1.550    radius for radial grids                                 
   RDEPT  =    1.329    core radius for aug-charge                              
                                                                                
   Atomic configuration                                                         
    4 entries                                                                   
     n  l   j            E        occ.                                          
     1  0  0.50      -514.6923   2.0000                                         
     2  0  0.50       -23.9615   2.0000                                         
     2  1  0.50        -9.0305   4.0000                                         
     3  2  1.50        -9.5241   0.0000                                         
   Description                                                                  
     l       E           TYP  RCUT    TYP  RCUT                                 
     0    -23.9615318     23  1.200                                             
     0     -9.5240782     23  1.200                                             
     1     -9.0304911     23  1.520                                             
     1      8.1634956     23  1.520                                             
     2     -9.5240782      7  1.500                                             
  local pseudopotential read in
  partial core-charges read in
  partial kinetic energy density read in
  kinetic energy density of atom read in
  atomic valenz-charges read in
  non local Contribution for L=           0  read in
    real space projection operators read in
  non local Contribution for L=           0  read in
    real space projection operators read in
  non local Contribution for L=           1  read in
    real space projection operators read in
  non local Contribution for L=           1  read in
    real space projection operators read in
    PAW grid and wavefunctions read in
 
   number of l-projection  operators is LMAX  =           4
   number of lm-projection operators is LMMAX =           8
 
 POTCAR:    PAW_PBE Pt 04Feb2005                  
   VRHFIN =Pt: s1d9                                                             
   LEXCH  = PE                                                                  
   EATOM  =   729.1176 eV,   53.5886 Ry                                         
                                                                                
   TITEL  = PAW_PBE Pt 04Feb2005                                                
   LULTRA =        F    use ultrasoft PP ?                                      
   IUNSCR =        1    unscreen: 0-lin 1-nonlin 2-no                           
   RPACOR =    2.330    partial core radius                                     
   POMASS =  195.080; ZVAL   =   10.000    mass and valenz                      
   RCORE  =    2.600    outmost cutoff radius                                   
   RWIGS  =    2.750; RWIGS  =    1.455    wigner-seitz radius (au A)           
   ENMAX  =  230.283; ENMIN  =  172.712 eV                                      
   ICORE  =        3    local potential                                         
   LCOR   =        T    correct aug charges                                     
   LPAW   =        T    paw PP                                                  
   EAUG   =  358.966                                                            
   DEXC   =    0.000                                                            
   RMAX   =    2.658    core radius for proj-oper                               
   RAUG   =    1.300    factor for augmentation sphere                          
   RDEP   =    2.761    radius for radial grids                                 
   RDEPT  =    2.203    core radius for aug-charge                              
                                                                                
   Atomic configuration                                                         
   16 entries                                                                   
     n  l   j            E        occ.                                          
     1  0  0.50    -78401.1885   2.0000                                         
     2  0  0.50    -13770.7750   2.0000                                         
     2  1  1.50    -11931.0468   6.0000                                         
     3  0  0.50     -3234.7234   2.0000                                         
     3  1  1.50     -2699.2216   6.0000                                         
     3  2  2.50     -2119.5714  10.0000                                         
     4  0  0.50      -695.1528   2.0000                                         
     4  1  1.50      -519.6034   6.0000                                         
     4  2  2.50      -306.6786  10.0000                                         
     4  3  3.50       -70.1041  14.0000                                         
     5  0  0.50      -101.7747   2.0000                                         
     5  1  1.50       -55.9873   6.0000                                         
     5  2  2.50        -6.1423   9.0000                                         
     6  0  0.50        -5.6573   1.0000                                         
     6  1  1.50        -6.8029   0.0000                                         
     5  3  2.50        -1.3606   0.0000                                         
   Description                                                                  
     l       E           TYP  RCUT    TYP  RCUT                                 
     2     -6.1423404     23  2.500                                             
     2     -7.5029230     23  2.500                                             
     0     -5.6573207     23  2.500                                             
     0      0.7416693     23  2.500                                             
     1     -2.7211652     23  2.600                                             
     1     20.4087390     23  2.600                                             
     3     -1.3605826     23  2.500                                             
  local pseudopotential read in
  partial core-charges read in
  partial kinetic energy density read in
  atomic valenz-charges read in
  non local Contribution for L=           2  read in
    real space projection operators read in
  non local Contribution for L=           2  read in
    real space projection operators read in
  non local Contribution for L=           0  read in
    real space projection operators read in
  non local Contribution for L=           0  read in
    real space projection operators read in
  non local Contribution for L=           1  read in
    real space projection operators read in
  non local Contribution for L=           1  read in
    real space projection operators read in
    PAW grid and wavefunctions read in
 
   number of l-projection  operators is LMAX  =           6
   number of lm-projection operators is LMMAX =          18
 
 Optimization of the real space projectors (new method)

 maximal supplied QI-value         = 13.98
 optimisation between [QCUT,QGAM] = [ 10.21, 20.42] = [ 29.18,116.73] Ry 
 Optimized for a Real-space Cutoff    1.65 Angstroem

   l    n(q)    QCUT    max X(q) W(low)/X(q) W(high)/X(q)  e(spline) 
   0     10    10.208     8.553    0.18E-04    0.75E-05    0.12E-06
   0     10    10.208     8.106    0.26E-04    0.16E-04    0.24E-06
   1     10    10.208     4.160    0.93E-05    0.96E-06    0.75E-07
   1     10    10.208     3.597    0.23E-04    0.26E-04    0.15E-06
   2      9    10.208     8.183    0.11E-03    0.28E-03    0.51E-06
   2      9    10.208     6.077    0.74E-04    0.19E-03    0.37E-06
   3      9    10.208   116.013    0.19E-03    0.98E-05    0.18E-06
   3      9    10.208   108.937    0.19E-03    0.10E-04    0.18E-06
 Optimization of the real space projectors (new method)

 maximal supplied QI-value         = 24.76
 optimisation between [QCUT,QGAM] = [ 10.15, 20.30] = [ 28.85,115.39] Ry 
 Optimized for a Real-space Cutoff    1.51 Angstroem

   l    n(q)    QCUT    max X(q) W(low)/X(q) W(high)/X(q)  e(spline) 
   0      9    10.150    20.381    0.17E-03    0.18E-03    0.41E-06
   0      9    10.150    15.268    0.18E-03    0.20E-03    0.43E-06
   1      9    10.150     5.964    0.16E-03    0.20E-03    0.36E-06
   1      9    10.150     5.382    0.13E-03    0.16E-03    0.33E-06
 Optimization of the real space projectors (new method)

 maximal supplied QI-value         = 14.36
 optimisation between [QCUT,QGAM] = [ 10.20, 20.39] = [ 29.12,116.47] Ry 
 Optimized for a Real-space Cutoff    1.55 Angstroem

   l    n(q)    QCUT    max X(q) W(low)/X(q) W(high)/X(q)  e(spline) 
   2      9    10.197    66.195    0.14E-03    0.26E-03    0.16E-06
   2      9    10.197    64.643    0.14E-03    0.26E-03    0.16E-06
   0      9    10.197    95.520    0.52E-04    0.23E-04    0.61E-07
   0      9    10.197    63.403    0.50E-04    0.22E-04    0.58E-07
   1      9    10.197    19.961    0.18E-03    0.80E-04    0.90E-07
   1      9    10.197    13.289    0.15E-03    0.68E-04    0.78E-07
  PAW_PBE Ce 23Dec2003                  :
 energy of atom  1       EATOM=-1063.0861
 kinetic energy error for atom=    0.0451 (will be added to EATOM!!)
  PAW_PBE O 08Apr2002                   :
 energy of atom  2       EATOM= -432.3788
 kinetic energy error for atom=    0.1156 (will be added to EATOM!!)
  PAW_PBE Pt 04Feb2005                  :
 energy of atom  3       EATOM= -729.1176
 kinetic energy error for atom=    0.0056 (will be added to EATOM!!)
 
 
 POSCAR: CeO2-110-l3-p23:                        
  positions in direct lattice
  velocities in cartesian coordinates
 exchange correlation table for  LEXCH =        8
   RHO(1)=    0.500       N(1)  =     2000
   RHO(2)=  100.500       N(2)  =     4000

 VTST: version 3.1, (03/28/14)

 CHAIN: initializing optimizer
 
 OPT: Using VASP Conjugate-Gradient optimizer
 CHAIN: Read ICHAIN            0
 
 POSCAR: CeO2-110-l3-p23:                        
  positions in direct lattice
  velocities in cartesian coordinates
 


--------------------------------------------------------------------------------------------------------


 ion  position               nearest neighbor table
   1  0.771  0.167  0.000-  36 2.38  40 2.38  39 2.38  44 2.38  52 2.38  54 2.38
   2  0.771  0.500  0.000-  36 2.38  38 2.38  40 2.38  46 2.38  58 2.38  59 2.38
   3  0.271  0.167  0.000-  41 2.38  45 2.38  43 2.38  37 2.38  50 2.38  51 2.38
   4  0.771  0.833  0.000-  38 2.38  46 2.38  44 2.38  39 2.38  49 2.38  53 2.38
   5  0.271  0.500  0.000-  41 2.38  42 2.38  45 2.38  47 2.38  56 2.38  57 2.38
   6  0.271  0.833  0.000-  42 2.38  47 2.38  43 2.38  37 2.38  48 2.38  55 2.38
   7  0.521  0.000  0.079-  66 2.37  60 2.37  50 2.38  54 2.38  48 2.38  49 2.38  43 2.38  44 2.38

   8  0.521  0.667  0.079-  62 2.37  61 2.38  48 2.38  49 2.38  56 2.38  59 2.38  38 2.38  42 2.38

   9  0.021  0.000  0.079-  64 2.37  52 2.38  53 2.38  55 2.38  51 2.38  39 2.38  37 2.38  65 2.39

  10  0.521  0.333  0.079-  70 2.36  68 2.37  50 2.38  54 2.38  56 2.38  59 2.38  36 2.38  45 2.38

  11  0.021  0.333  0.079-  51 2.38  52 2.38  57 2.38  58 2.38  40 2.38  41 2.38  69 2.38  71 2.39

  12  0.021  0.667  0.079-  63 2.36  55 2.38  53 2.38  58 2.38  57 2.38  47 2.38  46 2.38  67 2.38

  13  0.771  0.167  0.158-  72 2.34  70 2.37  69 2.37  60 2.38  54 2.39  52 2.39  79 2.39  65 2.39

  14  0.771  0.833  0.158-  62 2.35  73 2.37  60 2.37  65 2.37  63 2.38  53 2.39  49 2.39  83 2.39

  15  0.271  0.167  0.158-  78 2.36  66 2.37  64 2.37  82 2.37  68 2.37  51 2.38  71 2.38  50 2.39

  16  0.772  0.500  0.157-  77 2.34  75 2.36  58 2.36  59 2.37  69 2.37  63 2.38  70 2.39  62 2.40

  17  0.270  0.500  0.158-  80 2.36  67 2.36  71 2.36  61 2.37  68 2.37  81 2.39  57 2.39  56 2.40

  18  0.272  0.834  0.157-  74 2.34  76 2.35  64 2.38  48 2.38  55 2.38  61 2.38  66 2.39  67 2.39

  19  0.023  0.665  0.235-  83 2.33  67 2.34  81 2.34  75 2.36  63 2.37  76 2.38  86 2.41  91 2.49

  20  0.520  0.668  0.233-  92 2.31  61 2.33  62 2.35  89 2.36  77 2.37  74 2.38  73 2.41  80 2.42

  21  0.023  0.335  0.236-  71 2.35  81 2.36  93 2.37  82 2.38  79 2.38  69 2.39  75 2.40  94 2.40

  22  0.022  0.999  0.234-  65 2.32  85 2.34  64 2.34  76 2.37  95 2.37  82 2.38  79 2.41  83 2.43

  23  0.523  0.002  0.234-  72 2.34  60 2.35  66 2.36  73 2.36  74 2.37  90 2.38  78 2.38  88 2.46

  24  0.517  0.333  0.233-  84 2.30  68 2.32  80 2.34  70 2.35  78 2.36  77 2.42  72 2.43  87 2.48
                           108 3.26
  25  0.765  0.501  0.311- 106 2.30  84 2.32  89 2.33  77 2.34  91 2.35  75 2.38  93 2.38 109 3.04

  26  0.777  0.168  0.315- 102 2.29  79 2.35  88 2.38  85 2.40  93 2.42 103 2.44  72 2.45  84 2.50
                           108 3.13 109 3.33
  27  0.272  0.502  0.320- 104 2.21  86 2.40  87 2.40  94 2.41  92 2.43  80 2.48  81 2.48 107 2.48

  28  0.276  0.834  0.315-  92 2.33  90 2.34  86 2.34  98 2.35  95 2.38  97 2.39  74 2.41  76 2.44

  29  0.268  0.165  0.317- 100 2.30  94 2.33  95 2.35  87 2.36  82 2.41  90 2.43  78 2.45  99 2.48
                           108 3.22
  30  0.772  0.832  0.316-  96 2.32 101 2.35  85 2.36  89 2.38  83 2.40  88 2.41  73 2.41  91 2.47

  31  0.025  0.999  0.384- 102 2.21  95 2.25 100 2.28  85 2.30 101 2.32  97 2.32
  32  0.521  0.988  0.387-  98 2.22  88 2.24  96 2.26  90 2.27  99 2.28 108 3.21
  33  0.030  0.682  0.387- 107 2.20  97 2.21  91 2.24  86 2.24 101 2.25
  34  0.522  0.665  0.386- 104 2.12  89 2.30  92 2.32  98 2.35  96 2.35 106 2.41
  35  0.020  0.323  0.391- 105 2.13  93 2.31 102 2.32  94 2.35 107 2.36 100 2.37
  36  0.646  0.333  0.000-   1 2.38   2 2.38  10 2.38
  37  0.146  0.000  0.000-   3 2.38   6 2.38   9 2.38
  38  0.646  0.667  0.000-   4 2.38   2 2.38   8 2.38
  39  0.896  0.000  0.000-   1 2.38   4 2.38   9 2.38
  40  0.896  0.333  0.000-   1 2.38   2 2.38  11 2.38
  41  0.146  0.333  0.000-   3 2.38   5 2.38  11 2.38
  42  0.396  0.667  0.000-   6 2.38   5 2.38   8 2.38
  43  0.396  0.000  0.000-   3 2.38   6 2.38   7 2.38
  44  0.646  0.000  0.000-   1 2.38   4 2.38   7 2.38
  45  0.396  0.333  0.000-   3 2.38   5 2.38  10 2.38
  46  0.896  0.667  0.000-   4 2.38   2 2.38  12 2.38
  47  0.146  0.667  0.000-   6 2.38   5 2.38  12 2.38
  48  0.396  0.833  0.079-  18 2.38   8 2.38   7 2.38   6 2.38
  49  0.646  0.833  0.079-   8 2.38   7 2.38   4 2.38  14 2.39
  50  0.396  0.167  0.079-  10 2.38   7 2.38   3 2.38  15 2.39
  51  0.146  0.167  0.079-  11 2.38   9 2.38   3 2.38  15 2.38
  52  0.896  0.167  0.079-  11 2.38   9 2.38   1 2.38  13 2.39
  53  0.896  0.833  0.079-  12 2.38   9 2.38   4 2.38  14 2.39
  54  0.646  0.167  0.079-  10 2.38   7 2.38   1 2.38  13 2.39
  55  0.146  0.833  0.079-  12 2.38   9 2.38   6 2.38  18 2.38
  56  0.396  0.500  0.079-   8 2.38  10 2.38   5 2.38  17 2.40
  57  0.146  0.500  0.079-  11 2.38  12 2.38   5 2.38  17 2.39
  58  0.896  0.500  0.079-  16 2.36  12 2.38  11 2.38   2 2.38
  59  0.646  0.500  0.079-  16 2.37  10 2.38   8 2.38   2 2.38
  60  0.647  1.000  0.157-  23 2.35   7 2.37  14 2.37  13 2.38
  61  0.395  0.666  0.157-  20 2.33  17 2.37   8 2.38  18 2.38
  62  0.647  0.668  0.156-  20 2.35  14 2.35   8 2.37  16 2.40
  63  0.897  0.667  0.157-  12 2.36  19 2.37  14 2.38  16 2.38
  64  0.146  0.000  0.157-  22 2.34  15 2.37   9 2.37  18 2.38
  65  0.896  0.999  0.158-  22 2.32  14 2.37   9 2.39  13 2.39
  66  0.396  0.001  0.157-  23 2.36  15 2.37   7 2.37  18 2.39
  67  0.146  0.666  0.157-  19 2.34  17 2.36  12 2.38  18 2.39
  68  0.394  0.333  0.156-  24 2.32  15 2.37  10 2.37  17 2.37
  69  0.896  0.333  0.157-  13 2.37  16 2.37  11 2.38  21 2.39
  70  0.646  0.333  0.157-  24 2.35  10 2.36  13 2.37  16 2.39
  71  0.146  0.334  0.158-  21 2.35  17 2.36  15 2.38  11 2.39
  72  0.647  0.165  0.235-  23 2.34  13 2.34  24 2.43  26 2.45
  73  0.647  0.837  0.236-  23 2.36  14 2.37  20 2.41  30 2.41
  74  0.397  0.836  0.233-  18 2.34  23 2.37  20 2.38  28 2.41
  75  0.895  0.502  0.235-  16 2.36  19 2.36  25 2.38  21 2.40
  76  0.147  0.833  0.234-  18 2.35  22 2.37  19 2.38  28 2.44
  77  0.645  0.502  0.233-  25 2.34  16 2.34  20 2.37  24 2.42
  78  0.395  0.167  0.235-  24 2.36  15 2.36  23 2.38  29 2.45
  79  0.897  0.169  0.236-  26 2.35  21 2.38  13 2.39  22 2.41
  80  0.394  0.498  0.236-  24 2.34  17 2.36  20 2.42  27 2.48
  81  0.145  0.501  0.237-  19 2.34  21 2.36  17 2.39  27 2.48
  82  0.145  0.166  0.236-  15 2.37  21 2.38  22 2.38  29 2.41
  83  0.897  0.827  0.237-  19 2.33  14 2.39  30 2.40  22 2.43
  84  0.641  0.339  0.307- 108 2.04  24 2.30  25 2.32  26 2.50 109 2.66
  85  0.898  0.996  0.310-  31 2.30  22 2.34  30 2.36  26 2.40
  86  0.149  0.672  0.314-  33 2.24  28 2.34  27 2.40  19 2.41
  87  0.393  0.330  0.317- 108 2.01  29 2.36  27 2.40  24 2.48
  88  0.649  0.003  0.316-  32 2.24  26 2.38  30 2.41  23 2.46
  89  0.646  0.666  0.311-  34 2.30  25 2.33  20 2.36  30 2.38
  90  0.399  0.997  0.313-  32 2.27  28 2.34  23 2.38  29 2.43
  91  0.899  0.657  0.319-  33 2.24  25 2.35  30 2.47  19 2.49
  92  0.399  0.671  0.309-  20 2.31  34 2.32  28 2.33  27 2.43
  93  0.900  0.340  0.315-  35 2.31  21 2.37  25 2.38  26 2.42
  94  0.149  0.331  0.315-  29 2.33  35 2.35  21 2.40  27 2.41
  95  0.148  0.998  0.312-  31 2.25  29 2.35  22 2.37  28 2.38
  96  0.643  0.832  0.390-  32 2.26  30 2.32  34 2.35
  97  0.146  0.837  0.392-  33 2.21  31 2.32  28 2.39
  98  0.404  0.833  0.391-  32 2.22  28 2.35  34 2.35
  99  0.410  0.152  0.395- 108 1.98  32 2.28  29 2.48
 100  0.146  0.158  0.392-  31 2.28  29 2.30  35 2.37
 101  0.905  0.836  0.391-  33 2.25  31 2.32  30 2.35
 102  0.907  0.154  0.387-  31 2.21  26 2.29  35 2.32
 103  0.666  0.184  0.400- 108 2.02 109 2.09  26 2.44
 104  0.386  0.536  0.392-  34 2.12  27 2.21
 105  0.874  0.396  0.436- 109 2.00  35 2.13
 106  0.684  0.528  0.396- 109 2.03  25 2.30  34 2.41
 107  0.107  0.507  0.389-  33 2.20  35 2.36  27 2.48
 108  0.527  0.257  0.359-  99 1.98  87 2.01 103 2.02  84 2.04 109 2.61  26 3.13  32 3.21  29 3.22
                            24 3.26
 109  0.706  0.358  0.411- 105 2.00 106 2.03 103 2.09 108 2.61  84 2.66  25 3.04  26 3.33
 

IMPORTANT INFORMATION: All symmetrisations will be switched off!
NOSYMM: (Re-)initialisation of all symmetry stuff for point group C_1.

 
 
 KPOINTS: CeO2-111-3x3-9layers         ! Comment  

Automatic generation of k-mesh.
Space group operators:
 irot       det(A)        alpha          n_x          n_y          n_z        tau_x        tau_y        tau_z
    1     1.000000     0.000000     1.000000     0.000000     0.000000     0.000000     0.000000     0.000000
 
 Subroutine IBZKPT returns following result:
 ===========================================
 
 Found      1 irreducible k-points:
 
 Following reciprocal coordinates:
            Coordinates               Weight
  0.000000  0.000000  0.000000      1.000000
 
 Following cartesian coordinates:
            Coordinates               Weight
  0.000000  0.000000  0.000000      1.000000
 


--------------------------------------------------------------------------------------------------------




 Dimension of arrays:
   k-points           NKPTS =      1   k-points in BZ     NKDIM =      1   number of bands    NBANDS=    584
   number of dos      NEDOS =    301   number of ions     NIONS =    109
   non local maximal  LDIM  =      8   non local SUM 2l+1 LMDIM =     32
   total plane-waves  NPLWV = 933120
   max r-space proj   IRMAX =   5592   max aug-charges    IRDMAX= 143303
   dimension x,y,z NGX =    72 NGY =   80 NGZ =  162
   dimension x,y,z NGXF=   144 NGYF=  160 NGZF=  324
   support grid    NGXF=   288 NGYF=  320 NGZF=  648
   ions per type =              35  72   2
 NGX,Y,Z   is equivalent  to a cutoff of  10.90, 11.42, 10.90 a.u.
 NGXF,Y,Z  is equivalent  to a cutoff of  21.80, 22.84, 21.80 a.u.


 I would recommend the setting:
   dimension x,y,z NGX =    72 NGY =   76 NGZ =  161
 SYSTEM =  unknown system                          
 POSCAR =  CeO2-110-l3-p23:                        

 Startparameter for this run:
   NWRITE =      2    write-flag & timer
   PREC   = accura    normal or accurate (medium, high low for compatibility)
   ISTART =      1    job   : 0-new  1-cont  2-samecut
   ICHARG =      0    charge: 1-file 2-atom 10-const
   ISPIN  =      2    spin polarized calculation?
   LNONCOLLINEAR =      F non collinear calculations
   LSORBIT =      F    spin-orbit coupling
   INIWAV =      1    electr: 0-lowe 1-rand  2-diag
   LASPH  =      T    aspherical Exc in radial PAW
   METAGGA=      F    non-selfconsistent MetaGGA calc.

 Electronic Relaxation 1
   ENCUT  =  400.0 eV  29.40 Ry    5.42 a.u.  17.91 18.99 40.29*2*pi/ulx,y,z
   ENINI  =  400.0     initial cutoff
   ENAUG  =  605.4 eV  augmentation charge cutoff
   NELM   =    100;   NELMIN=  2; NELMDL=  0     # of ELM steps 
   EDIFF  = 0.1E-03   stopping-criterion for ELM
   LREAL  =      T    real-space projection
   NLSPLINE    = F    spline interpolate recip. space projectors
   LCOMPAT=      F    compatible to vasp.4.4
   GGA_COMPAT  = T    GGA compatible to vasp.4.4-vasp.4.6
   LMAXPAW     = -100 max onsite density
   LMAXMIX     =    6 max onsite mixed and CHGCAR
   VOSKOWN=      0    Vosko Wilk Nusair interpolation
   ROPT   =   -0.00025  -0.00025  -0.00025
 Ionic relaxation
   EDIFFG = -.5E-01   stopping-criterion for IOM
   NSW    =    100    number of steps for IOM
   NBLOCK =      1;   KBLOCK =    100    inner block; outer block 
   IBRION =      2    ionic relax: 0-MD 1-quasi-New 2-CG
   NFREE  =      1    steps in history (QN), initial steepest desc. (CG)
   ISIF   =      2    stress and relaxation
   IWAVPR =     11    prediction:  0-non 1-charg 2-wave 3-comb
   ISYM   =      0    0-nonsym 1-usesym 2-fastsym
   LCORR  =      T    Harris-Foulkes like correction to forces

   POTIM  = 0.1000    time-step for ionic-motion
   TEIN   =    0.0    initial temperature
   TEBEG  =    0.0;   TEEND  =   0.0 temperature during run
   SMASS  =  -3.00    Nose mass-parameter (am)
   estimated Nose-frequenzy (Omega)   =  0.10E-29 period in steps =****** mass=  -0.276E-26a.u.
   SCALEE = 1.0000    scale energy and forces
   NPACO  =    256;   APACO  = 16.0  distance and # of slots for P.C.
   PSTRESS=    0.0 pullay stress

  Mass of Ions in am
   POMASS = 140.12 16.00195.08
  Ionic Valenz
   ZVAL   =  12.00  6.00 10.00
  Atomic Wigner-Seitz radii
   RWIGS  =  -1.00 -1.00 -1.00
  virtual crystal weights 
   VCA    =   1.00  1.00  1.00
   NELECT =     872.0000    total number of electrons
   NUPDOWN=      -1.0000    fix difference up-down

 DOS related values:
   EMIN   =  10.00;   EMAX   =-10.00  energy-range for DOS
   EFERMI =   0.00
   ISMEAR =     0;   SIGMA  =   0.05  broadening in eV -4-tet -1-fermi 0-gaus

 Electronic relaxation 2 (details)
   IALGO  =     68    algorithm
   LDIAG  =      T    sub-space diagonalisation (order eigenvalues)
   LSUBROT=      F    optimize rotation matrix (better conditioning)
   TURBO    =      0    0=normal 1=particle mesh
   IRESTART =      0    0=no restart 2=restart with 2 vectors
   NREBOOT  =      0    no. of reboots
   NMIN     =      0    reboot dimension
   EREF     =   0.00    reference energy to select bands
   IMIX   =      4    mixing-type and parameters
     AMIX     =   0.20;   BMIX     =  0.00
     AMIX_MAG =   0.80;   BMIX_MAG =  0.00
     AMIN     =   0.10
     WC   =   100.;   INIMIX=   1;  MIXPRE=   1;  MAXMIX= -45

 Intra band minimization:
   WEIMIN = 0.0010     energy-eigenvalue tresh-hold
   EBREAK =  0.43E-07  absolut break condition
   DEPER  =   0.30     relativ break condition  

   TIME   =   0.40     timestep for ELM

  volume/ion in A,a.u.               =      28.98       195.59
  Fermi-wavevector in a.u.,A,eV,Ry     =   1.065921  2.014298 15.458756  1.136187
  Thomas-Fermi vector in A             =   2.201488
 
 Write flags
   LWAVE  =      T    write WAVECAR
   LCHARG =      T    write CHGCAR
   LVTOT  =      F    write LOCPOT, total local potential
   LVHAR  =      F    write LOCPOT, Hartree potential only
   LELF   =      F    write electronic localiz. function (ELF)
   LORBIT =     11    0 simple, 1 ext, 2 COOP (PROOUT)


 Dipole corrections
   LMONO  =      F    monopole corrections only (constant potential shift)
   LDIPOL =      T    correct potential (dipole corrections)
   IDIPOL =      3    1-x, 2-y, 3-z, 4-all directions 
   EPSILON=  1.0000000 bulk dielectric constant

 LDA+U is selected, type is set to LDAUTYPE =  2
   angular momentum for each species LDAUL =     3   -1   -1
   U (eV)           for each species LDAUU =   4.5  0.0  0.0
   J (eV)           for each species LDAUJ =   0.0  0.0  0.0
 Exchange correlation treatment:
   GGA     =    --    GGA type
   LEXCH   =     8    internal setting for exchange type
   VOSKOWN=      0    Vosko Wilk Nusair interpolation
   LHFCALC =     F    Hartree Fock is set to
   LHFONE  =     F    Hartree Fock one center treatment
   AEXX    =    0.0000 exact exchange contribution

 Linear response parameters
   LEPSILON=     F    determine dielectric tensor
   LRPA    =     F    only Hartree local field effects (RPA)
   LNABLA  =     F    use nabla operator in PAW spheres
   LVEL    =     F    velocity operator in full k-point grid
   LINTERFAST=   F  fast interpolation
   KINTER  =     0    interpolate to denser k-point grid
   CSHIFT  =0.1000    complex shift for real part using Kramers Kronig
   OMEGAMAX=  -1.0    maximum frequency
   DEG_THRESHOLD= 0.2000000E-02 threshold for treating states as degnerate
   RTIME   =    0.100 relaxation time in fs

 Orbital magnetization related:
   ORBITALMAG=     F  switch on orbital magnetization
   LCHIMAG   =     F  perturbation theory with respect to B field
   DQ        =  0.001000  dq finite difference perturbation B field



--------------------------------------------------------------------------------------------------------


 conjugate gradient relaxation of ions
   using selective dynamics as specified on POSCAR
 charge density and potential will be updated during run
 spin polarized calculation
 RMM-DIIS sequential band-by-band and
  variant of blocked Davidson during initial phase
 perform sub-space diagonalisation
    before iterative eigenvector-optimisation
 modified Broyden-mixing scheme, WC =      100.0
 initial mixing is a Kerker type mixing with AMIX =  0.2000 and BMIX =      0.0010
 Hartree-type preconditioning will be used
 using additional bands          148
 real space projection scheme for non local part
 use partial core corrections
 calculate Harris-corrections to forces 
   (improved forces if not selfconsistent)
 use gradient corrections 
 use of overlap-Matrix (Vanderbilt PP)
 Gauss-broadening in eV      SIGMA  =   0.05


--------------------------------------------------------------------------------------------------------


  energy-cutoff  :      400.00
  volume of cell :     3159.12
      direct lattice vectors                 reciprocal lattice vectors
    10.980000000  0.000000000  0.000000000     0.091074681  0.000000000  0.000000000
     0.000000000 11.646048686  0.000000000     0.000000000  0.085866033  0.000000000
     0.000000000  0.000000000 24.705040572     0.000000000  0.000000000  0.040477570

  length of vectors
    10.980000000 11.646048686 24.705040572     0.091074681  0.085866033  0.040477570


 
 old parameters found on file WAVECAR:
  energy-cutoff  :      400.00
  volume of cell :     3159.12
      direct lattice vectors                 reciprocal lattice vectors
    10.980000000  0.000000000  0.000000000     0.091074681  0.000000000  0.000000000
     0.000000000 11.646048686  0.000000000     0.000000000  0.085866033  0.000000000
     0.000000000  0.000000000 24.705040572     0.000000000  0.000000000  0.040477570

  length of vectors

 
 k-points in units of 2pi/SCALE and weight: CeO2-111-3x3-9layers         ! Comment  
   0.00000000  0.00000000  0.00000000       1.000
 
 k-points in reciprocal lattice and weights: CeO2-111-3x3-9layers         ! Comment  
   0.00000000  0.00000000  0.00000000       1.000
 
 position of ions in fractional coordinates (direct lattice) 
   0.77120274  0.16666677  0.00000000
   0.77120274  0.50000010  0.00000000
   0.27120274  0.16666677  0.00000000
   0.77120274  0.83333343  0.00000000
   0.27120274  0.50000010  0.00000000
   0.27120274  0.83333343  0.00000000
   0.52120274  0.00000010  0.07856729
   0.52120274  0.66666677  0.07856729
   0.02120274  0.00000010  0.07856729
   0.52120274  0.33333343  0.07856729
   0.02120274  0.33333343  0.07856729
   0.02120274  0.66666677  0.07856729
   0.77110859  0.16739466  0.15759112
   0.77127224  0.83285026  0.15760121
   0.27060105  0.16653951  0.15755403
   0.77178045  0.49987958  0.15664535
   0.27039545  0.50002005  0.15817476
   0.27150061  0.83374960  0.15716537
   0.02255012  0.66545108  0.23452498
   0.52023359  0.66769763  0.23305010
   0.02318467  0.33473896  0.23584400
   0.02181080  0.99893965  0.23357079
   0.52280970  0.00188770  0.23397047
   0.51687761  0.33325682  0.23261626
   0.76515424  0.50076114  0.31139157
   0.77698406  0.16791448  0.31528247
   0.27178708  0.50205302  0.32049924
   0.27585995  0.83391601  0.31473538
   0.26790473  0.16541027  0.31683080
   0.77224296  0.83229946  0.31644723
   0.02466253  0.99947493  0.38442756
   0.52134913  0.98795947  0.38650430
   0.02980380  0.68198226  0.38743003
   0.52184439  0.66504654  0.38550167
   0.01956298  0.32254822  0.39100527
   0.64620274  0.33333343  0.00000000
   0.14620274  0.00000010  0.00000000
   0.64620274  0.66666677  0.00000000
   0.89620274  0.00000010  0.00000000
   0.89620274  0.33333343  0.00000000
   0.14620274  0.33333343  0.00000000
   0.39620274  0.66666677  0.00000000
   0.39620274  0.00000010  0.00000000
   0.64620274  0.00000010  0.00000000
   0.39620274  0.33333343  0.00000000
   0.89620274  0.66666677  0.00000000
   0.14620274  0.66666677  0.00000000
   0.39620274  0.83333343  0.07856729
   0.64620274  0.83333343  0.07856729
   0.39620274  0.16666677  0.07856729
   0.14620274  0.16666677  0.07856729
   0.89620274  0.16666677  0.07856729
   0.89620274  0.83333343  0.07856729
   0.64620274  0.16666677  0.07856729
   0.14620274  0.83333343  0.07856729
   0.39620274  0.50000010  0.07856729
   0.14620274  0.50000010  0.07856729
   0.89620274  0.50000010  0.07856729
   0.64620274  0.50000010  0.07856729
   0.64699745  0.99964725  0.15650805
   0.39533668  0.66585749  0.15680033
   0.64677567  0.66848154  0.15644593
   0.89669908  0.66670232  0.15662172
   0.14647548  0.00021018  0.15666812
   0.89623805  0.99924483  0.15782111
   0.39632148  0.00142895  0.15673442
   0.14619188  0.66566376  0.15735783
   0.39436632  0.33327041  0.15625568
   0.89619317  0.33338038  0.15729302
   0.64563113  0.33283684  0.15656725
   0.14604329  0.33428626  0.15775656
   0.64713932  0.16469846  0.23455753
   0.64724531  0.83661265  0.23606544
   0.39734726  0.83600242  0.23347719
   0.89546982  0.50181748  0.23457680
   0.14669793  0.83285551  0.23449825
   0.64547161  0.50155952  0.23299530
   0.39479234  0.16685619  0.23544092
   0.89701422  0.16908566  0.23644879
   0.39426540  0.49753855  0.23630610
   0.14539103  0.50108716  0.23742168
   0.14543720  0.16649653  0.23572209
   0.89674034  0.82688793  0.23667451
   0.64136277  0.33938303  0.30739313
   0.89768393  0.99634639  0.31043329
   0.14934575  0.67225347  0.31406459
   0.39272184  0.33031551  0.31655165
   0.64914427  0.00320665  0.31628238
   0.64575267  0.66637969  0.31054832
   0.39886864  0.99743558  0.31275859
   0.89896207  0.65722933  0.31904336
   0.39879137  0.67133221  0.30927341
   0.89963908  0.34040950  0.31464512
   0.14897135  0.33110608  0.31524219
   0.14774762  0.99834076  0.31153943
   0.64275788  0.83156011  0.39044558
   0.14568055  0.83653080  0.39208033
   0.40393686  0.83333274  0.39095906
   0.40962877  0.15201780  0.39470980
   0.14581671  0.15788905  0.39230943
   0.90543814  0.83564090  0.39081654
   0.90719718  0.15373433  0.38723788
   0.66561867  0.18367340  0.40048451
   0.38621381  0.53603129  0.39212444
   0.87351407  0.39592412  0.43614509
   0.68420745  0.52781622  0.39637413
   0.10666984  0.50732835  0.38921677
   0.52702131  0.25742675  0.35949913
   0.70555580  0.35789752  0.41100465
 
 position of ions in cartesian coordinates  (Angst):
   8.46780604  1.94100927  0.00000000
   8.46780604  5.82302550  0.00000000
   2.97780604  1.94100927  0.00000000
   8.46780604  9.70504173  0.00000000
   2.97780604  5.82302550  0.00000000
   2.97780604  9.70504173  0.00000000
   5.72280604  0.00000116  1.94100811
   5.72280604  7.76403361  1.94100811
   0.23280604  0.00000116  1.94100811
   5.72280604  3.88201739  1.94100811
   0.23280604  3.88201739  1.94100811
   0.23280604  7.76403361  1.94100811
   8.46677229  1.94948635  3.89329490
   8.46856919  9.69941469  3.89354421
   2.97119956  1.93952724  3.89237873
   8.47414936  5.82162196  3.86992978
   2.96894206  5.82325784  3.90771378
   2.98107671  9.70988846  3.88277683
   0.24760032  7.74987564  5.79394918
   5.71216479  7.77603908  5.75751227
   0.25456771  3.89838617  5.82653557
   0.23948264 11.63369985  5.77037576
   5.74045051  0.02198423  5.78025006
   5.67531614  3.88112517  5.74679414
   8.40139355  5.83188860  7.69294145
   8.53128495  1.95554016  7.78906624
   2.98422212  5.84693393  7.91794683
   3.02894226  9.71182643  7.77555025
   2.94159388  1.92637611  7.82731771
   8.47922767  9.69300001  7.81784155
   0.27079458 11.63993365  9.49729842
   5.72441341 11.50582407  9.54860446
   0.32724572  7.94239860  9.57147452
   5.72985140  7.74516444  9.52383436
   0.21480154  3.75641223  9.65980096
   7.09530604  3.88201739  0.00000000
   1.60530604  0.00000116  0.00000000
   7.09530604  7.76403361  0.00000000
   9.84030604  0.00000116  0.00000000
   9.84030604  3.88201739  0.00000000
   1.60530604  3.88201739  0.00000000
   4.35030604  7.76403361  0.00000000
   4.35030604  0.00000116  0.00000000
   7.09530604  0.00000116  0.00000000
   4.35030604  3.88201739  0.00000000
   9.84030604  7.76403361  0.00000000
   1.60530604  7.76403361  0.00000000
   4.35030604  9.70504173  1.94100811
   7.09530604  9.70504173  1.94100811
   4.35030604  1.94100927  1.94100811
   1.60530604  1.94100927  1.94100811
   9.84030604  1.94100927  1.94100811
   9.84030604  9.70504173  1.94100811
   7.09530604  1.94100927  1.94100811
   1.60530604  9.70504173  1.94100811
   4.35030604  5.82302550  1.94100811
   1.60530604  5.82302550  1.94100811
   9.84030604  5.82302550  1.94100811
   7.09530604  5.82302550  1.94100811
   7.10403198 11.64194059  3.86653769
   4.34079677  7.75460878  3.87375848
   7.10159688  7.78516860  3.86500317
   9.84575593  7.76444772  3.86934603
   1.60830073  0.00244774  3.87049223
   9.84069375 11.63725394  3.89897698
   4.35160988  0.01664167  3.87213009
   1.60518680  7.75235253  3.88753162
   4.33014219  3.88128337  3.86030283
   9.84020102  3.88256418  3.88593033
   7.08902984  3.87623404  3.86800037
   1.60355527  3.89311409  3.89738223
   7.10558969  1.91808629  5.79475337
   7.10675349  9.74323170  5.83200631
   4.36287289  9.73612488  5.76806334
   9.83225866  5.84419084  5.79522942
   1.61074324  9.69947581  5.79328878
   7.08727824  5.84118657  5.75615835
   4.33481990  1.94321531  5.81657745
   9.84921611  1.96917978  5.84147692
   4.32903413  5.79435818  5.83795189
   1.59639356  5.83568549  5.86551224
   1.59690046  1.93902667  5.82352379
   9.84620890  9.62997711  5.84705325
   7.04216317  3.95247133  7.59415985
   9.85656951 11.60349861  7.66926706
   1.63981631  7.82909665  7.75897836
   4.31208581  3.84687056  7.82042146
   7.12760407  0.03734475  7.81376908
   7.09036429  7.76069034  7.67210894
   4.37957764 11.61618330  7.72671360
   9.87060354  7.65412476  7.88197916
   4.37872925  7.81836758  7.64061205
   9.87803711  3.96442564  7.77332039
   1.63570540  3.85607751  7.78807107
   1.62226884 11.62672504  7.69659426
   7.05748155  9.68438948  9.64597383
   1.59957249  9.74227847  9.68636056
   4.43522674  9.70503370  9.65865956
   4.49772384  1.77040670  9.75132170
   1.60106749  1.83878355  9.69202033
   9.94171080  9.73191466  9.65513856
   9.96102508  1.79039744  9.56672754
   7.30849300  2.13906935  9.89398601
   4.24062760  6.24264656  9.68745008
   9.59118448  4.61095152 10.77498224
   7.51259777  6.14697340  9.79243890
   1.17123488  5.90837061  9.61561608
   5.78669396  2.99800452  8.88144060
   7.74700270  4.16809191 10.15388649
 


--------------------------------------------------------------------------------------------------------


 use parallel FFT for wavefunctions z direction half grid
 k-point  1 :   0.0000 0.0000 0.0000  plane waves:   28608

 maximum and minimum number of plane-waves per node :      4774     4761

 maximum number of plane-waves:     28608
 maximum index in each direction: 
   IXMAX=   17   IYMAX=   18   IZMAX=   40
   IXMIN=  -17   IYMIN=  -18   IZMIN=    0

 NGX is ok and might be reduce to  70
 NGY is ok and might be reduce to  74
 NGZ is ok and might be reduce to 162

 real space projection operators:
  total allocation   :      66863.95 KBytes
  max/ min on nodes  :      11371.25      11010.48


 parallel 3D FFT for wavefunctions:
    minimum data exchange during FFTs selected (reduces bandwidth)
 parallel 3D FFT for charge:
    minimum data exchange during FFTs selected (reduces bandwidth)


 total amount of memory used by VASP on root node   108290. kBytes
========================================================================

   base      :      30000. kBytes
   nonlr-proj:      13611. kBytes
   fftplans  :      26017. kBytes
   grid      :      26227. kBytes
   one-center:        933. kBytes
   wavefun   :      11502. kBytes
 
     INWAV:  cpu time    1.98: real time    2.03
 Broyden mixing: mesh for mixing (old mesh)
   NGX = 35   NGY = 37   NGZ = 81
  (NGX  =144   NGY  =160   NGZ  =324)
  gives a total of 104895 points

 charge density for first step will be calculated from the start-wavefunctions


--------------------------------------------------------------------------------------------------------


 Maximum index for non-local projection operator          903
 Maximum index for augmentation-charges         3089 (set IRDMAX)


--------------------------------------------------------------------------------------------------------


 initial charge from wavefunction
 First call to EWALD:  gamma=   0.121
 Maximum number of real-space cells 4x 3x 2
 Maximum number of reciprocal cells 2x 2x 4

 FEWALD executed in parallel
    FEWALD:  cpu time    0.00: real time    0.00


----------------------------------------- Iteration    1(   1)  ---------------------------------------


    POTLOK:  cpu time    0.32: real time    0.32
    SETDIJ:  cpu time    2.57: real time    2.57
     EDDAV:  cpu time   11.07: real time   11.08
       DOS:  cpu time    0.00: real time    0.00
    CHARGE:  cpu time    1.12: real time    1.12
    MIXING:  cpu time    0.01: real time    0.01
    --------------------------------------------
      LOOP:  cpu time   15.09: real time   15.10

 eigenvalue-minimisations  :  2880
 total energy-change (2. order) :-0.8619103E+03  (-0.1115490E-03)
 number of electron     871.9999992 magnetization      -0.0000000
 augmentation part      -10.1624359 magnetization      -0.0000013

 DIPCOR: dipole corrections for dipol
 direction  3 min pos   228,
 dipolmoment           0.000000      0.000000      0.981322 electrons x Angstroem
 Tr[quadrupol]    -18970.373436

 energy correction for charged system         0.000000 eV
 dipol+quadrupol energy correction           -0.027586 eV
 added-field ion interaction          3.434623 eV  (added to PSCEN)


 Broyden mixing:
  rms(total) = 0.12176E-01    rms(broyden)= 0.12170E-01
  rms(prec ) = 0.12982E-01
  weight for this iteration     100.00

 Free energy of the ion-electron system (eV)
  ---------------------------------------------------
  alpha Z        PSCENC =      2210.57793509
  Ewald energy   TEWEN  =    254724.02377624
  -Hartree energ DENC   =   -321764.86542181
  -exchange      EXHF   =         0.00000000
  -V(xc)+E(xc)   XCENC  =      2265.37510609
  PAW double counting   =     66607.68573798   -65746.08379004
  entropy T*S    EENTRO =        -0.00000000
  eigenvalues    EBANDS =     -8946.23318874
  atomic energy  EATOM  =     69787.60950336
  ---------------------------------------------------
  free energy    TOTEN  =      -861.91034183 eV

  energy without entropy =     -861.91034183  energy(sigma->0) =     -861.91034183


--------------------------------------------------------------------------------------------------------




----------------------------------------- Iteration    1(   2)  ---------------------------------------


    POTLOK:  cpu time    0.32: real time    0.32
    SETDIJ:  cpu time    2.57: real time    2.57
    EDDIAG:  cpu time    1.55: real time    1.56
  RMM-DIIS:  cpu time    4.84: real time    4.84
    ORTHCH:  cpu time    0.19: real time    0.19
       DOS:  cpu time    0.00: real time    0.00
    CHARGE:  cpu time    1.12: real time    1.12
    MIXING:  cpu time    0.01: real time    0.01
    --------------------------------------------
      LOOP:  cpu time   10.59: real time   10.61

 eigenvalue-minimisations  :  2115
 total energy-change (2. order) : 0.1260457E-03  (-0.1631475E-03)
 number of electron     871.9999992 magnetization       0.0000000
 augmentation part      -10.1680862 magnetization       0.0000028

 DIPCOR: dipole corrections for dipol
 direction  3 min pos   228,
 dipolmoment           0.000000      0.000000      0.989878 electrons x Angstroem
 Tr[quadrupol]    -18970.308804

 energy correction for charged system         0.000000 eV
 dipol+quadrupol energy correction           -0.028069 eV
 added-field ion interaction          3.464567 eV  (added to PSCEN)


 Broyden mixing:
  rms(total) = 0.76146E-02    rms(broyden)= 0.76039E-02
  rms(prec ) = 0.80316E-02
  weight for this iteration     100.00

 eigenvalues of (default mixing * dielectric matrix)
  average eigenvalue GAMMA=   0.6249
  0.6249

 Free energy of the ion-electron system (eV)
  ---------------------------------------------------
  alpha Z        PSCENC =      2210.60739601
  Ewald energy   TEWEN  =    254724.02377624
  -Hartree energ DENC   =   -321763.13689751
  -exchange      EXHF   =         0.00000000
  -V(xc)+E(xc)   XCENC  =      2265.37315893
  PAW double counting   =     66607.79451570   -65746.19403884
  entropy T*S    EENTRO =        -0.00000000
  eigenvalues    EBANDS =     -8947.98762969
  atomic energy  EATOM  =     69787.60950336
  ---------------------------------------------------
  free energy    TOTEN  =      -861.91021579 eV

  energy without entropy =     -861.91021579  energy(sigma->0) =     -861.91021579


--------------------------------------------------------------------------------------------------------




----------------------------------------- Iteration    1(   3)  ---------------------------------------


    POTLOK:  cpu time    0.32: real time    0.32
    SETDIJ:  cpu time    2.54: real time    2.54
    EDDIAG:  cpu time    1.52: real time    1.53
  RMM-DIIS:  cpu time    3.44: real time    3.44
    ORTHCH:  cpu time    0.18: real time    0.18
       DOS:  cpu time    0.00: real time    0.00
    --------------------------------------------
      LOOP:  cpu time    8.01: real time    8.03

 eigenvalue-minimisations  :  1484
 total energy-change (2. order) : 0.5865282E-04  (-0.1350593E-04)
 number of electron     871.9999992 magnetization       0.0000000
 augmentation part      -10.1680862 magnetization       0.0000028

 DIPCOR: dipole corrections for dipol
 direction  3 min pos   228,
 dipolmoment           0.000000      0.000000      0.991723 electrons x Angstroem
 Tr[quadrupol]    -18970.320585

 energy correction for charged system         0.000000 eV
 dipol+quadrupol energy correction           -0.028174 eV
 added-field ion interaction          3.471024 eV  (added to PSCEN)


 Free energy of the ion-electron system (eV)
  ---------------------------------------------------
  alpha Z        PSCENC =      2210.61374892
  Ewald energy   TEWEN  =    254724.02377624
  -Hartree energ DENC   =   -321763.44153727
  -exchange      EXHF   =         0.00000000
  -V(xc)+E(xc)   XCENC  =      2265.37450775
  PAW double counting   =     66607.75099645   -65746.14932602
  entropy T*S    EENTRO =        -0.00000000
  eigenvalues    EBANDS =     -8947.69182657
  atomic energy  EATOM  =     69787.60950336
  ---------------------------------------------------
  free energy    TOTEN  =      -861.91015713 eV

  energy without entropy =     -861.91015713  energy(sigma->0) =     -861.91015713


--------------------------------------------------------------------------------------------------------




 average (electrostatic) potential at core
  the test charge radii are     1.1513  0.7215  1.2059
  (the norm of the test charge is              1.0000)
       1 -84.8471       2 -84.8503       3 -84.8433       4 -84.8455       5 -84.8391
       6 -84.8480       7 -84.4527       8 -84.4751       9 -84.5081      10 -84.4597
      11 -84.4934      12 -84.4760      13 -84.5692      14 -84.5826      15 -84.5610
      16 -84.5374      17 -84.5717      18 -84.5536      19 -84.5935      20 -84.4888
      21 -84.5430      22 -84.5685      23 -84.5513      24 -84.3987      25 -84.3813
      26 -84.4891      27 -84.5929      28 -84.5324      29 -84.5172      30 -84.6290
      31 -84.3645      32 -84.4662      33 -84.5412      34 -84.3003      35 -84.0872
      36 -73.3581      37 -73.3664      38 -73.3607      39 -73.3666      40 -73.3668
      41 -73.3603      42 -73.3570      43 -73.3560      44 -73.3545      45 -73.3512
      46 -73.3633      47 -73.3605      48 -73.7210      49 -73.6889      50 -73.6800
      51 -73.7248      52 -73.7234      53 -73.7146      54 -73.6891      55 -73.7279
      56 -73.6656      57 -73.6948      58 -73.7422      59 -73.7266      60 -73.6974
      61 -73.7483      62 -73.7361      63 -73.6839      64 -73.7607      65 -73.7614
      66 -73.6777      67 -73.7149      68 -73.7852      69 -73.6486      70 -73.6973
      71 -73.7012      72 -73.5985      73 -73.6173      74 -73.6433      75 -73.6939
      76 -73.6296      77 -73.6736      78 -73.6247      79 -73.6649      80 -73.5275
      81 -73.6302      82 -73.6094      83 -73.6766      84 -74.3808      85 -73.8339
      86 -73.9511      87 -74.1465      88 -73.8671      89 -73.8820      90 -73.8958
      91 -73.9192      92 -73.7751      93 -73.7716      94 -73.6520      95 -73.9582
      96 -73.5051      97 -73.5051      98 -73.3984      99 -73.8994     100 -73.2974
     101 -73.5351     102 -73.4515     103 -74.4339     104 -73.1289     105 -73.5307
     106 -73.6758     107 -73.3765     108 -73.3244     109 -72.2051
 
 
 
 E-fermi :   1.2862     XC(G=0):  -5.8830     alpha+bet : -7.4411


 spin component 1

 k-point     1 :       0.0000    0.0000    0.0000
  band No.  band energies     occupation 
      1     -34.1839      1.00000
      2     -34.1776      1.00000
      3     -34.1471      1.00000
      4     -34.1437      1.00000
      5     -34.1424      1.00000
      6     -34.1364      1.00000
      7     -33.9271      1.00000
      8     -33.8710      1.00000
      9     -33.8114      1.00000
     10     -33.7663      1.00000
     11     -33.7527      1.00000
     12     -33.7453      1.00000
     13     -33.7346      1.00000
     14     -33.7286      1.00000
     15     -33.7249      1.00000
     16     -33.7060      1.00000
     17     -33.7025      1.00000
     18     -33.6987      1.00000
     19     -33.6920      1.00000
     20     -33.6878      1.00000
     21     -33.6735      1.00000
     22     -33.6718      1.00000
     23     -33.6646      1.00000
     24     -33.6573      1.00000
     25     -33.6487      1.00000
     26     -33.6405      1.00000
     27     -33.6248      1.00000
     28     -33.6185      1.00000
     29     -33.6097      1.00000
     30     -33.6039      1.00000
     31     -33.5978      1.00000
     32     -33.5909      1.00000
     33     -33.5764      1.00000
     34     -33.5667      1.00000
     35     -33.4589      1.00000
     36     -19.2142      1.00000
     37     -19.1547      1.00000
     38     -19.1021      1.00000
     39     -18.9963      1.00000
     40     -18.9774      1.00000
     41     -18.9410      1.00000
     42     -18.9055      1.00000
     43     -18.8741      1.00000
     44     -18.8481      1.00000
     45     -18.8301      1.00000
     46     -18.8116      1.00000
     47     -18.7429      1.00000
     48     -18.7079      1.00000
     49     -18.6953      1.00000
     50     -18.6906      1.00000
     51     -18.6759      1.00000
     52     -18.6668      1.00000
     53     -18.6338      1.00000
     54     -18.6186      1.00000
     55     -18.6096      1.00000
     56     -18.5912      1.00000
     57     -18.5591      1.00000
     58     -18.5395      1.00000
     59     -18.5278      1.00000
     60     -18.4904      1.00000
     61     -18.4670      1.00000
     62     -18.4587      1.00000
     63     -18.4152      1.00000
     64     -18.4099      1.00000
     65     -18.3933      1.00000
     66     -18.3565      1.00000
     67     -18.3293      1.00000
     68     -18.2652      1.00000
     69     -18.2370      1.00000
     70     -18.2214      1.00000
     71     -18.2176      1.00000
     72     -18.2134      1.00000
     73     -18.2013      1.00000
     74     -18.1778      1.00000
     75     -18.1278      1.00000
     76     -18.1118      1.00000
     77     -18.0354      1.00000
     78     -17.9093      1.00000
     79     -17.8719      1.00000
     80     -17.8395      1.00000
     81     -17.8079      1.00000
     82     -17.7858      1.00000
     83     -17.7739      1.00000
     84     -17.6937      1.00000
     85     -17.5352      1.00000
     86     -17.5216      1.00000
     87     -17.3707      1.00000
     88     -17.2862      1.00000
     89     -17.2065      1.00000
     90     -17.0836      1.00000
     91     -17.0737      1.00000
     92     -17.0507      1.00000
     93     -17.0222      1.00000
     94     -16.9415      1.00000
     95     -16.8881      1.00000
     96     -16.8467      1.00000
     97     -16.8308      1.00000
     98     -16.7929      1.00000
     99     -16.7607      1.00000
    100     -16.7235      1.00000
    101     -16.7211      1.00000
    102     -16.7145      1.00000
    103     -16.6872      1.00000
    104     -16.6347      1.00000
    105     -16.4967      1.00000
    106     -16.4858      1.00000
    107     -16.4703      1.00000
    108     -16.4474      1.00000
    109     -16.4413      1.00000
    110     -16.4050      1.00000
    111     -16.3869      1.00000
    112     -16.3837      1.00000
    113     -16.3694      1.00000
    114     -16.3613      1.00000
    115     -16.3550      1.00000
    116     -16.3452      1.00000
    117     -16.3364      1.00000
    118     -16.3294      1.00000
    119     -16.3195      1.00000
    120     -16.3031      1.00000
    121     -16.2968      1.00000
    122     -16.2837      1.00000
    123     -16.2454      1.00000
    124     -16.2357      1.00000
    125     -16.2125      1.00000
    126     -16.2087      1.00000
    127     -16.2034      1.00000
    128     -16.1897      1.00000
    129     -16.1872      1.00000
    130     -16.1753      1.00000
    131     -16.1620      1.00000
    132     -16.1484      1.00000
    133     -16.1420      1.00000
    134     -16.1262      1.00000
    135     -16.1090      1.00000
    136     -16.0819      1.00000
    137     -16.0669      1.00000
    138     -16.0658      1.00000
    139     -16.0512      1.00000
    140     -16.0383      1.00000
    141     -15.9969      1.00000
    142     -15.9871      1.00000
    143     -15.9287      1.00000
    144     -15.9175      1.00000
    145     -15.8869      1.00000
    146     -15.8269      1.00000
    147     -15.7547      1.00000
    148     -15.7221      1.00000
    149     -15.7158      1.00000
    150     -15.6583      1.00000
    151     -15.6189      1.00000
    152     -15.5457      1.00000
    153     -15.4510      1.00000
    154     -15.4064      1.00000
    155     -15.3735      1.00000
    156     -15.3425      1.00000
    157     -15.3338      1.00000
    158     -15.3172      1.00000
    159     -15.2768      1.00000
    160     -15.1911      1.00000
    161     -15.1219      1.00000
    162     -15.0074      1.00000
    163     -14.8964      1.00000
    164     -14.8092      1.00000
    165     -14.7764      1.00000
    166     -14.7381      1.00000
    167     -14.6202      1.00000
    168     -14.5569      1.00000
    169     -14.5200      1.00000
    170     -14.4830      1.00000
    171     -14.4584      1.00000
    172     -14.3131      1.00000
    173     -14.2461      1.00000
    174     -14.1951      1.00000
    175     -14.1576      1.00000
    176     -14.1380      1.00000
    177     -14.1180      1.00000
    178     -14.0871      1.00000
    179     -14.0719      1.00000
    180     -14.0565      1.00000
    181     -14.0499      1.00000
    182     -14.0123      1.00000
    183     -13.9857      1.00000
    184     -13.9508      1.00000
    185     -13.9287      1.00000
    186     -13.9132      1.00000
    187     -13.8950      1.00000
    188     -13.8698      1.00000
    189     -13.8502      1.00000
    190     -13.8285      1.00000
    191     -13.7986      1.00000
    192     -13.7908      1.00000
    193     -13.7551      1.00000
    194     -13.7181      1.00000
    195     -13.6902      1.00000
    196     -13.6616      1.00000
    197     -13.5983      1.00000
    198     -13.5815      1.00000
    199     -13.5518      1.00000
    200     -13.5143      1.00000
    201     -13.5047      1.00000
    202     -13.4765      1.00000
    203     -13.3817      1.00000
    204     -13.3446      1.00000
    205     -13.3267      1.00000
    206     -13.2631      1.00000
    207     -13.1375      1.00000
    208     -13.1190      1.00000
    209     -13.0899      1.00000
    210     -12.9757      1.00000
    211     -12.8885      1.00000
    212     -12.7017      1.00000
    213      -5.1786      1.00000
    214      -5.0314      1.00000
    215      -4.8664      1.00000
    216      -4.3602      1.00000
    217      -4.1415      1.00000
    218      -4.0425      1.00000
    219      -4.0121      1.00000
    220      -3.9797      1.00000
    221      -3.9046      1.00000
    222      -3.8768      1.00000
    223      -3.8058      1.00000
    224      -3.7614      1.00000
    225      -3.7273      1.00000
    226      -3.6737      1.00000
    227      -3.6059      1.00000
    228      -3.5924      1.00000
    229      -3.5022      1.00000
    230      -3.4644      1.00000
    231      -3.4344      1.00000
    232      -3.4180      1.00000
    233      -3.3965      1.00000
    234      -3.3687      1.00000
    235      -3.3547      1.00000
    236      -3.3403      1.00000
    237      -3.3306      1.00000
    238      -3.3149      1.00000
    239      -3.3063      1.00000
    240      -3.2921      1.00000
    241      -3.2877      1.00000
    242      -3.2636      1.00000
    243      -3.2581      1.00000
    244      -3.2436      1.00000
    245      -3.2326      1.00000
    246      -3.2145      1.00000
    247      -3.1995      1.00000
    248      -3.1772      1.00000
    249      -3.1496      1.00000
    250      -3.1317      1.00000
    251      -3.1261      1.00000
    252      -3.1109      1.00000
    253      -3.1062      1.00000
    254      -3.0843      1.00000
    255      -3.0636      1.00000
    256      -3.0512      1.00000
    257      -3.0294      1.00000
    258      -3.0218      1.00000
    259      -3.0013      1.00000
    260      -2.9918      1.00000
    261      -2.9678      1.00000
    262      -2.9527      1.00000
    263      -2.9455      1.00000
    264      -2.9282      1.00000
    265      -2.9199      1.00000
    266      -2.8978      1.00000
    267      -2.8776      1.00000
    268      -2.8573      1.00000
    269      -2.8435      1.00000
    270      -2.8240      1.00000
    271      -2.8148      1.00000
    272      -2.7995      1.00000
    273      -2.7730      1.00000
    274      -2.7129      1.00000
    275      -2.7052      1.00000
    276      -2.6878      1.00000
    277      -2.6752      1.00000
    278      -2.6513      1.00000
    279      -2.6129      1.00000
    280      -2.6070      1.00000
    281      -2.5899      1.00000
    282      -2.5557      1.00000
    283      -2.5399      1.00000
    284      -2.5145      1.00000
    285      -2.5102      1.00000
    286      -2.4890      1.00000
    287      -2.4732      1.00000
    288      -2.4553      1.00000
    289      -2.4402      1.00000
    290      -2.4311      1.00000
    291      -2.4108      1.00000
    292      -2.3810      1.00000
    293      -2.3683      1.00000
    294      -2.3482      1.00000
    295      -2.3353      1.00000
    296      -2.3146      1.00000
    297      -2.2839      1.00000
    298      -2.2543      1.00000
    299      -2.2177      1.00000
    300      -2.2039      1.00000
    301      -2.1814      1.00000
    302      -2.1625      1.00000
    303      -2.1560      1.00000
    304      -2.1322      1.00000
    305      -2.1202      1.00000
    306      -2.1028      1.00000
    307      -2.0838      1.00000
    308      -2.0468      1.00000
    309      -2.0315      1.00000
    310      -2.0193      1.00000
    311      -1.9974      1.00000
    312      -1.9853      1.00000
    313      -1.9767      1.00000
    314      -1.9555      1.00000
    315      -1.9444      1.00000
    316      -1.9226      1.00000
    317      -1.9054      1.00000
    318      -1.9011      1.00000
    319      -1.8850      1.00000
    320      -1.8694      1.00000
    321      -1.8638      1.00000
    322      -1.8526      1.00000
    323      -1.8429      1.00000
    324      -1.8380      1.00000
    325      -1.8300      1.00000
    326      -1.8227      1.00000
    327      -1.8061      1.00000
    328      -1.7961      1.00000
    329      -1.7733      1.00000
    330      -1.7543      1.00000
    331      -1.7412      1.00000
    332      -1.7243      1.00000
    333      -1.7137      1.00000
    334      -1.6953      1.00000
    335      -1.6741      1.00000
    336      -1.6448      1.00000
    337      -1.6074      1.00000
    338      -1.6052      1.00000
    339      -1.5936      1.00000
    340      -1.5784      1.00000
    341      -1.5635      1.00000
    342      -1.5511      1.00000
    343      -1.5415      1.00000
    344      -1.5266      1.00000
    345      -1.5167      1.00000
    346      -1.4955      1.00000
    347      -1.4430      1.00000
    348      -1.4228      1.00000
    349      -1.4177      1.00000
    350      -1.4015      1.00000
    351      -1.3852      1.00000
    352      -1.3801      1.00000
    353      -1.3738      1.00000
    354      -1.3555      1.00000
    355      -1.3448      1.00000
    356      -1.3361      1.00000
    357      -1.2975      1.00000
    358      -1.2878      1.00000
    359      -1.2754      1.00000
    360      -1.2661      1.00000
    361      -1.2490      1.00000
    362      -1.2322      1.00000
    363      -1.2230      1.00000
    364      -1.2036      1.00000
    365      -1.1946      1.00000
    366      -1.1848      1.00000
    367      -1.1791      1.00000
    368      -1.1386      1.00000
    369      -1.1293      1.00000
    370      -1.1214      1.00000
    371      -1.1091      1.00000
    372      -1.0957      1.00000
    373      -1.0873      1.00000
    374      -1.0761      1.00000
    375      -1.0620      1.00000
    376      -1.0524      1.00000
    377      -1.0472      1.00000
    378      -1.0414      1.00000
    379      -1.0312      1.00000
    380      -1.0194      1.00000
    381      -1.0073      1.00000
    382      -0.9995      1.00000
    383      -0.9825      1.00000
    384      -0.9722      1.00000
    385      -0.9554      1.00000
    386      -0.9393      1.00000
    387      -0.9193      1.00000
    388      -0.9070      1.00000
    389      -0.8871      1.00000
    390      -0.8444      1.00000
    391      -0.8278      1.00000
    392      -0.8033      1.00000
    393      -0.7880      1.00000
    394      -0.7793      1.00000
    395      -0.7702      1.00000
    396      -0.7586      1.00000
    397      -0.7578      1.00000
    398      -0.7552      1.00000
    399      -0.7310      1.00000
    400      -0.7223      1.00000
    401      -0.7063      1.00000
    402      -0.6844      1.00000
    403      -0.6832      1.00000
    404      -0.6561      1.00000
    405      -0.6514      1.00000
    406      -0.6354      1.00000
    407      -0.6239      1.00000
    408      -0.6137      1.00000
    409      -0.5747      1.00000
    410      -0.5562      1.00000
    411      -0.5536      1.00000
    412      -0.5455      1.00000
    413      -0.5436      1.00000
    414      -0.5312      1.00000
    415      -0.5170      1.00000
    416      -0.5080      1.00000
    417      -0.4971      1.00000
    418      -0.4907      1.00000
    419      -0.4633      1.00000
    420      -0.4527      1.00000
    421      -0.4398      1.00000
    422      -0.4208      1.00000
    423      -0.3956      1.00000
    424      -0.3815      1.00000
    425      -0.3324      1.00000
    426      -0.3120      1.00000
    427      -0.1213      1.00000
    428      -0.1153      1.00000
    429       0.0164      1.00000
    430       0.0174      1.00000
    431       0.0657      1.00000
    432       0.2914      1.00000
    433       0.4104      1.00000
    434       0.6807      1.00000
    435       0.8701      1.00000
    436       1.0570      1.00000
    437       1.6397      0.00000
    438       1.7302      0.00000
    439       1.7306      0.00000
    440       1.7339      0.00000
    441       1.7352      0.00000
    442       1.7469      0.00000
    443       1.7492      0.00000
    444       1.7504      0.00000
    445       1.7710      0.00000
    446       1.7726      0.00000
    447       1.8149      0.00000
    448       1.8243      0.00000
    449       1.8264      0.00000
    450       1.8303      0.00000
    451       1.8482      0.00000
    452       1.8496      0.00000
    453       1.8572      0.00000
    454       1.8587      0.00000
    455       1.8627      0.00000
    456       1.8960      0.00000
    457       1.9123      0.00000
    458       1.9342      0.00000
    459       1.9366      0.00000
    460       1.9393      0.00000
    461       1.9409      0.00000
    462       1.9475      0.00000
    463       1.9520      0.00000
    464       1.9532      0.00000
    465       1.9604      0.00000
    466       1.9625      0.00000
    467       1.9678      0.00000
    468       1.9684      0.00000
    469       1.9735      0.00000
    470       1.9778      0.00000
    471       1.9828      0.00000
    472       1.9887      0.00000
    473       1.9924      0.00000
    474       2.0078      0.00000
    475       2.0111      0.00000
    476       2.0170      0.00000
    477       2.0240      0.00000
    478       2.0355      0.00000
    479       2.0427      0.00000
    480       2.0463      0.00000
    481       2.0524      0.00000
    482       2.0587      0.00000
    483       2.0595      0.00000
    484       2.0626      0.00000
    485       2.0633      0.00000
    486       2.0750      0.00000
    487       2.0769      0.00000
    488       2.0860      0.00000
    489       2.0890      0.00000
    490       2.0922      0.00000
    491       2.0985      0.00000
    492       2.1049      0.00000
    493       2.1060      0.00000
    494       2.1113      0.00000
    495       2.1150      0.00000
    496       2.1160      0.00000
    497       2.1208      0.00000
    498       2.1227      0.00000
    499       2.1262      0.00000
    500       2.1320      0.00000
    501       2.1371      0.00000
    502       2.1388      0.00000
    503       2.1406      0.00000
    504       2.1420      0.00000
    505       2.1444      0.00000
    506       2.1475      0.00000
    507       2.1489      0.00000
    508       2.1534      0.00000
    509       2.1551      0.00000
    510       2.1573      0.00000
    511       2.1622      0.00000
    512       2.1654      0.00000
    513       2.1680      0.00000
    514       2.1700      0.00000
    515       2.1730      0.00000
    516       2.1752      0.00000
    517       2.1775      0.00000
    518       2.1801      0.00000
    519       2.1828      0.00000
    520       2.1834      0.00000
    521       2.1858      0.00000
    522       2.1883      0.00000
    523       2.1913      0.00000
    524       2.1924      0.00000
    525       2.1941      0.00000
    526       2.1950      0.00000
    527       2.1973      0.00000
    528       2.2003      0.00000
    529       2.2048      0.00000
    530       2.2070      0.00000
    531       2.2093      0.00000
    532       2.2127      0.00000
    533       2.2134      0.00000
    534       2.2178      0.00000
    535       2.2205      0.00000
    536       2.2242      0.00000
    537       2.2261      0.00000
    538       2.2303      0.00000
    539       2.2341      0.00000
    540       2.2378      0.00000
    541       2.2386      0.00000
    542       2.2429      0.00000
    543       2.2461      0.00000
    544       2.2499      0.00000
    545       2.2552      0.00000
    546       2.2567      0.00000
    547       2.2582      0.00000
    548       2.2615      0.00000
    549       2.2659      0.00000
    550       2.2710      0.00000
    551       2.2733      0.00000
    552       2.2743      0.00000
    553       2.2787      0.00000
    554       2.2817      0.00000
    555       2.2857      0.00000
    556       2.2890      0.00000
    557       2.2923      0.00000
    558       2.2963      0.00000
    559       2.2988      0.00000
    560       2.3022      0.00000
    561       2.3062      0.00000
    562       2.3094      0.00000
    563       2.3107      0.00000
    564       2.3162      0.00000
    565       2.3181      0.00000
    566       2.3191      0.00000
    567       2.3217      0.00000
    568       2.3278      0.00000
    569       2.3296      0.00000
    570       2.3320      0.00000
    571       2.3373      0.00000
    572       2.3406      0.00000
    573       2.3425      0.00000
    574       2.3473      0.00000
    575       2.3493      0.00000
    576       2.3507      0.00000
    577       2.3530      0.00000
    578       2.3553      0.00000
    579       2.3621      0.00000
    580       2.3634      0.00000
    581       2.3655      0.00000
    582       2.3681      0.00000
    583       2.3708      0.00000
    584       2.3738      0.00000

 spin component 2

 k-point     1 :       0.0000    0.0000    0.0000
  band No.  band energies     occupation 
      1     -34.1839      1.00000
      2     -34.1776      1.00000
      3     -34.1471      1.00000
      4     -34.1437      1.00000
      5     -34.1424      1.00000
      6     -34.1364      1.00000
      7     -33.9271      1.00000
      8     -33.8710      1.00000
      9     -33.8114      1.00000
     10     -33.7663      1.00000
     11     -33.7527      1.00000
     12     -33.7453      1.00000
     13     -33.7346      1.00000
     14     -33.7286      1.00000
     15     -33.7249      1.00000
     16     -33.7060      1.00000
     17     -33.7025      1.00000
     18     -33.6987      1.00000
     19     -33.6920      1.00000
     20     -33.6878      1.00000
     21     -33.6735      1.00000
     22     -33.6718      1.00000
     23     -33.6646      1.00000
     24     -33.6573      1.00000
     25     -33.6487      1.00000
     26     -33.6405      1.00000
     27     -33.6248      1.00000
     28     -33.6185      1.00000
     29     -33.6097      1.00000
     30     -33.6039      1.00000
     31     -33.5978      1.00000
     32     -33.5909      1.00000
     33     -33.5764      1.00000
     34     -33.5667      1.00000
     35     -33.4589      1.00000
     36     -19.2142      1.00000
     37     -19.1547      1.00000
     38     -19.1021      1.00000
     39     -18.9963      1.00000
     40     -18.9774      1.00000
     41     -18.9410      1.00000
     42     -18.9055      1.00000
     43     -18.8741      1.00000
     44     -18.8481      1.00000
     45     -18.8301      1.00000
     46     -18.8116      1.00000
     47     -18.7429      1.00000
     48     -18.7079      1.00000
     49     -18.6953      1.00000
     50     -18.6906      1.00000
     51     -18.6759      1.00000
     52     -18.6668      1.00000
     53     -18.6338      1.00000
     54     -18.6186      1.00000
     55     -18.6096      1.00000
     56     -18.5912      1.00000
     57     -18.5591      1.00000
     58     -18.5395      1.00000
     59     -18.5278      1.00000
     60     -18.4904      1.00000
     61     -18.4670      1.00000
     62     -18.4587      1.00000
     63     -18.4152      1.00000
     64     -18.4099      1.00000
     65     -18.3933      1.00000
     66     -18.3565      1.00000
     67     -18.3293      1.00000
     68     -18.2652      1.00000
     69     -18.2370      1.00000
     70     -18.2214      1.00000
     71     -18.2176      1.00000
     72     -18.2134      1.00000
     73     -18.2013      1.00000
     74     -18.1778      1.00000
     75     -18.1278      1.00000
     76     -18.1118      1.00000
     77     -18.0354      1.00000
     78     -17.9093      1.00000
     79     -17.8719      1.00000
     80     -17.8395      1.00000
     81     -17.8079      1.00000
     82     -17.7858      1.00000
     83     -17.7739      1.00000
     84     -17.6937      1.00000
     85     -17.5352      1.00000
     86     -17.5216      1.00000
     87     -17.3707      1.00000
     88     -17.2862      1.00000
     89     -17.2065      1.00000
     90     -17.0836      1.00000
     91     -17.0737      1.00000
     92     -17.0507      1.00000
     93     -17.0222      1.00000
     94     -16.9415      1.00000
     95     -16.8881      1.00000
     96     -16.8467      1.00000
     97     -16.8308      1.00000
     98     -16.7929      1.00000
     99     -16.7607      1.00000
    100     -16.7235      1.00000
    101     -16.7211      1.00000
    102     -16.7145      1.00000
    103     -16.6872      1.00000
    104     -16.6347      1.00000
    105     -16.4967      1.00000
    106     -16.4858      1.00000
    107     -16.4703      1.00000
    108     -16.4474      1.00000
    109     -16.4413      1.00000
    110     -16.4050      1.00000
    111     -16.3869      1.00000
    112     -16.3837      1.00000
    113     -16.3694      1.00000
    114     -16.3613      1.00000
    115     -16.3550      1.00000
    116     -16.3452      1.00000
    117     -16.3364      1.00000
    118     -16.3294      1.00000
    119     -16.3195      1.00000
    120     -16.3031      1.00000
    121     -16.2968      1.00000
    122     -16.2837      1.00000
    123     -16.2454      1.00000
    124     -16.2357      1.00000
    125     -16.2125      1.00000
    126     -16.2087      1.00000
    127     -16.2034      1.00000
    128     -16.1897      1.00000
    129     -16.1872      1.00000
    130     -16.1753      1.00000
    131     -16.1620      1.00000
    132     -16.1484      1.00000
    133     -16.1420      1.00000
    134     -16.1262      1.00000
    135     -16.1090      1.00000
    136     -16.0819      1.00000
    137     -16.0669      1.00000
    138     -16.0658      1.00000
    139     -16.0512      1.00000
    140     -16.0383      1.00000
    141     -15.9969      1.00000
    142     -15.9871      1.00000
    143     -15.9287      1.00000
    144     -15.9175      1.00000
    145     -15.8869      1.00000
    146     -15.8269      1.00000
    147     -15.7547      1.00000
    148     -15.7221      1.00000
    149     -15.7158      1.00000
    150     -15.6583      1.00000
    151     -15.6189      1.00000
    152     -15.5457      1.00000
    153     -15.4510      1.00000
    154     -15.4064      1.00000
    155     -15.3735      1.00000
    156     -15.3425      1.00000
    157     -15.3338      1.00000
    158     -15.3172      1.00000
    159     -15.2768      1.00000
    160     -15.1911      1.00000
    161     -15.1219      1.00000
    162     -15.0074      1.00000
    163     -14.8964      1.00000
    164     -14.8092      1.00000
[...]
      5.72985      7.74516      9.52383        -0.006920     -0.002617     -0.005749
      0.21480      3.75641      9.65980        -0.008237      0.002990      0.003639
      7.09531      3.88202      0.00000         1.154525      0.010529     -0.468695
      1.60531      0.00000      0.00000         1.121846     -0.004699     -0.438224
      7.09531      7.76403      0.00000         1.143931     -0.010425     -0.461493
      9.84031      0.00000      0.00000        -1.123929      0.001182     -0.444930
      9.84031      3.88202      0.00000        -1.133045      0.006701     -0.443291
      1.60531      3.88202      0.00000         1.124014     -0.009039     -0.446556
      4.35031      7.76403      0.00000        -1.141999      0.016511     -0.464430
      4.35031      0.00000      0.00000        -1.155589     -0.010794     -0.472555
      7.09531      0.00000      0.00000         1.153132     -0.000455     -0.476565
      4.35031      3.88202      0.00000        -1.148929     -0.006367     -0.476277
      9.84031      7.76403      0.00000        -1.143181     -0.009161     -0.454505
      1.60531      7.76403      0.00000         1.138250      0.013241     -0.459922
      4.35031      9.70504      1.94101        -0.354239     -0.007113     -0.313824
      7.09531      9.70504      1.94101         0.371304      0.001782     -0.358074
      4.35031      1.94101      1.94101        -0.375641      0.012801     -0.354983
      1.60531      1.94101      1.94101         0.325382      0.030698     -0.294873
      9.84031      1.94101      1.94101        -0.337929     -0.035674     -0.281055
      9.84031      9.70504      1.94101        -0.350503      0.045840     -0.305866
      7.09531      1.94101      1.94101         0.379054      0.002914     -0.337053
      1.60531      9.70504      1.94101         0.339545     -0.006402     -0.314354
      4.35031      5.82303      1.94101        -0.361648      0.010327     -0.301708
      1.60531      5.82303      1.94101         0.339269     -0.019041     -0.299281
      9.84031      5.82303      1.94101        -0.334982     -0.025764     -0.385621
      7.09531      5.82303      1.94101         0.361286      0.020836     -0.346749
      7.10403     11.64194      3.86654         0.005360      0.002707     -0.006157
      4.34080      7.75461      3.87376         0.000085     -0.001156     -0.002251
      7.10160      7.78517      3.86500        -0.000912      0.007691     -0.002025
      9.84576      7.76445      3.86935        -0.003177      0.005274     -0.002341
      1.60830      0.00245      3.87049        -0.003739      0.003410     -0.002068
      9.84069     11.63725      3.89898        -0.000457      0.001234      0.005414
      4.35161      0.01664      3.87213         0.001510      0.002246     -0.008251
      1.60519      7.75235      3.88753        -0.002486     -0.004237     -0.000947
      4.33014      3.88128      3.86030         0.001665      0.000973      0.006706
      9.84020      3.88256      3.88593        -0.001280     -0.003783     -0.006229
      7.08903      3.87623      3.86800        -0.002264     -0.005644      0.002019
      1.60356      3.89311      3.89738         0.001148     -0.000469     -0.003668
      7.10559      1.91809      5.79475         0.004082      0.007778     -0.002158
      7.10675      9.74323      5.83201         0.007021      0.003807      0.005226
      4.36287      9.73612      5.76806        -0.002367     -0.002037      0.002655
      9.83226      5.84419      5.79523        -0.001567      0.005739     -0.001880
      1.61074      9.69948      5.79329        -0.003665      0.003589     -0.001315
      7.08728      5.84119      5.75616         0.001845     -0.004102      0.008016
      4.33482      1.94322      5.81658        -0.002865      0.006637     -0.001778
      9.84922      1.96918      5.84148        -0.001890     -0.002037      0.003386
      4.32903      5.79436      5.83795         0.001028     -0.003870      0.008188
      1.59639      5.83569      5.86551         0.005680      0.000626      0.001172
      1.59690      1.93903      5.82352         0.001914     -0.006529      0.005072
      9.84621      9.62998      5.84705        -0.001942     -0.000327      0.011286
      7.04216      3.95247      7.59416         0.003441     -0.005492      0.006262
      9.85657     11.60350      7.66927        -0.009491     -0.002493     -0.001463
      1.63982      7.82910      7.75898        -0.002363      0.002109      0.005684
      4.31209      3.84687      7.82042         0.000475     -0.011878      0.000357
      7.12760      0.03734      7.81377        -0.001057      0.000358      0.011120
      7.09036      7.76069      7.67211         0.000772      0.004388      0.006107
      4.37958     11.61618      7.72671        -0.004090      0.007409      0.007018
      9.87060      7.65412      7.88198         0.004990     -0.000689      0.006219
      4.37873      7.81837      7.64061         0.002955      0.001257      0.009417
      9.87804      3.96443      7.77332         0.002902      0.004411      0.007640
      1.63571      3.85608      7.78807        -0.002649     -0.004871      0.007104
      1.62227     11.62673      7.69659         0.008052     -0.000042     -0.010560
      7.05748      9.68439      9.64597        -0.001284      0.001338      0.000813
      1.59957      9.74228      9.68636         0.010669     -0.015805      0.005057
      4.43523      9.70503      9.65866         0.009115     -0.004034     -0.005978
      4.49772      1.77041      9.75132        -0.003347     -0.009815      0.000202
      1.60107      1.83878      9.69202         0.005446      0.011716      0.005167
      9.94171      9.73191      9.65514        -0.000264     -0.018526      0.001334
      9.96103      1.79040      9.56673        -0.009624      0.023723      0.012882
      7.30849      2.13907      9.89399        -0.004448     -0.001816      0.010692
      4.24063      6.24265      9.68745         0.019853      0.000805     -0.003286
      9.59118      4.61095     10.77498        -0.003437     -0.024150      0.020936
      7.51260      6.14697      9.79244         0.000742     -0.001133     -0.008482
      1.17123      5.90837      9.61562         0.000244      0.005747     -0.005723
      5.78669      2.99800      8.88144         0.009381      0.001790      0.007959
      7.74700      4.16809     10.15389         0.033564      0.002833     -0.001226
 -----------------------------------------------------------------------------------
    total drift:                                0.029592      0.034905      0.022776


--------------------------------------------------------------------------------------------------------



  FREE ENERGIE OF THE ION-ELECTRON SYSTEM (eV)
  ---------------------------------------------------
  free  energy   TOTEN  =      -882.72060469 eV

  energy  without entropy=     -882.72060469  energy(sigma->0) =     -882.72060469
 


--------------------------------------------------------------------------------------------------------


    POTLOK:  cpu time    2.88: real time    2.88


--------------------------------------------------------------------------------------------------------


 stress matrix after NEB project (eV)
    -70.74893      1.75165      0.35621
      1.75166   -114.31279     -0.54963
      0.35623     -0.54963    -66.07268
  FORCES: max atom, RMS     0.033706    0.009185
  FORCE total and by dimension    0.095894    0.033564
  Stress total and by dimension  149.817955  114.312794


--------------------------------------------------------------------------------------------------------


  
 reached required accuracy - stopping structural energy minimisation
 writing wavefunctions
     LOOP+:  cpu time   77.51: real time   80.91
    4ORBIT:  cpu time    0.00: real time    0.00
 


 total charge     
 
# of ion     s       p       d       f       tot
------------------------------------------------
  1        1.992   5.764   0.872   0.774   9.402
  2        1.992   5.764   0.872   0.774   9.402
  3        1.992   5.764   0.872   0.774   9.402
  4        1.992   5.764   0.872   0.774   9.402
  5        1.992   5.764   0.872   0.774   9.401
  6        1.992   5.764   0.872   0.774   9.402
  7        1.994   5.819   0.905   0.723   9.440
  8        1.994   5.819   0.905   0.722   9.439
  9        1.993   5.818   0.902   0.722   9.435
 10        1.994   5.819   0.906   0.723   9.442
 11        1.993   5.818   0.900   0.721   9.432
 12        1.994   5.819   0.904   0.722   9.438
 13        1.994   5.819   0.909   0.724   9.447
 14        1.994   5.819   0.909   0.724   9.447
 15        1.995   5.820   0.913   0.725   9.453
 16        1.995   5.821   0.918   0.727   9.461
 17        1.994   5.819   0.909   0.724   9.446
 18        1.995   5.820   0.916   0.726   9.457
 19        1.995   5.819   0.915   0.727   9.456
 20        1.996   5.822   0.930   0.731   9.480
 21        1.994   5.819   0.908   0.725   9.447
 22        1.995   5.821   0.923   0.728   9.468
 23        1.995   5.820   0.916   0.727   9.457
 24        1.997   5.820   0.929   0.745   9.491
 25        1.998   5.811   0.953   0.754   9.516
 26        1.992   5.814   0.901   0.741   9.448
 27        1.988   5.809   0.880   0.723   9.400
 28        1.995   5.821   0.923   0.728   9.466
 29        1.994   5.817   0.909   0.733   9.452
 30        1.992   5.817   0.900   0.722   9.431
 31        2.003   5.786   1.024   0.790   9.604
 32        2.004   5.771   1.030   0.799   9.605
 33        2.007   5.765   1.081   0.798   9.651
 34        1.997   5.781   0.996   0.792   9.566
 35        1.999   5.788   0.988   0.796   9.571
 36        1.600   3.384   0.000   0.000   4.984
 37        1.600   3.384   0.000   0.000   4.985
 38        1.600   3.384   0.000   0.000   4.984
 39        1.600   3.384   0.000   0.000   4.984
 40        1.600   3.384   0.000   0.000   4.985
 41        1.600   3.384   0.000   0.000   4.984
 42        1.600   3.384   0.000   0.000   4.984
 43        1.600   3.384   0.000   0.000   4.984
 44        1.600   3.384   0.000   0.000   4.984
 45        1.600   3.384   0.000   0.000   4.984
 46        1.600   3.384   0.000   0.000   4.985
 47        1.600   3.384   0.000   0.000   4.984
 48        1.597   3.458   0.000   0.000   5.054
 49        1.596   3.456   0.000   0.000   5.052
 50        1.596   3.456   0.000   0.000   5.052
 51        1.597   3.457   0.000   0.000   5.053
 52        1.597   3.456   0.000   0.000   5.052
 53        1.596   3.456   0.000   0.000   5.052
 54        1.596   3.456   0.000   0.000   5.052
 55        1.597   3.457   0.000   0.000   5.054
 56        1.596   3.454   0.000   0.000   5.050
 57        1.596   3.455   0.000   0.000   5.051
 58        1.597   3.459   0.000   0.000   5.056
 59        1.597   3.458   0.000   0.000   5.055
 60        1.598   3.464   0.000   0.000   5.062
 61        1.598   3.468   0.000   0.000   5.066
 62        1.599   3.467   0.000   0.000   5.065
 63        1.598   3.463   0.000   0.000   5.061
 64        1.598   3.467   0.000   0.000   5.066
 65        1.598   3.465   0.000   0.000   5.063
 66        1.598   3.465   0.000   0.000   5.062
 67        1.598   3.465   0.000   0.000   5.063
 68        1.599   3.471   0.000   0.000   5.070
 69        1.597   3.460   0.000   0.000   5.057
 70        1.598   3.467   0.000   0.000   5.065
 71        1.598   3.463   0.000   0.000   5.060
 72        1.598   3.454   0.000   0.000   5.052
 73        1.597   3.454   0.000   0.000   5.051
 74        1.598   3.461   0.000   0.000   5.059
 75        1.598   3.462   0.000   0.000   5.060
 76        1.597   3.457   0.000   0.000   5.054
 77        1.597   3.468   0.000   0.000   5.066
 78        1.597   3.456   0.000   0.000   5.053
 79        1.597   3.458   0.000   0.000   5.055
 80        1.596   3.452   0.000   0.000   5.048
 81        1.598   3.451   0.000   0.000   5.049
 82        1.597   3.458   0.000   0.000   5.054
 83        1.597   3.454   0.000   0.000   5.051
 84        1.600   3.459   0.000   0.000   5.058
 85        1.598   3.476   0.000   0.000   5.075
 86        1.599   3.477   0.000   0.000   5.076
 87        1.593   3.454   0.000   0.000   5.047
 88        1.597   3.469   0.000   0.000   5.066
 89        1.599   3.479   0.000   0.000   5.078
 90        1.599   3.475   0.000   0.000   5.074
 91        1.597   3.464   0.000   0.000   5.061
 92        1.599   3.475   0.000   0.000   5.075
 93        1.597   3.465   0.000   0.000   5.062
 94        1.598   3.463   0.000   0.000   5.061
 95        1.600   3.482   0.000   0.000   5.082
 96        1.604   3.419   0.000   0.000   5.024
 97        1.603   3.427   0.000   0.000   5.031
 98        1.602   3.430   0.000   0.000   5.031
 99        1.603   3.393   0.000   0.000   4.996
100        1.602   3.422   0.000   0.000   5.024
101        1.604   3.423   0.000   0.000   5.027
102        1.606   3.443   0.000   0.000   5.049
103        1.598   3.367   0.000   0.000   4.966
104        1.612   3.400   0.000   0.000   5.013
105        1.606   3.367   0.000   0.000   4.973
106        1.596   3.392   0.000   0.000   4.988
107        1.601   3.418   0.000   0.000   5.019
108        0.701   0.677   8.022   0.000   9.400
109        0.633   0.493   8.052   0.000   9.179
------------------------------------------------
tot      186.273 451.980  48.308  26.087 712.649

 


 magnetization (x)
 
# of ion     s       p       d       f       tot
------------------------------------------------
  1        0.000   0.000   0.000  -0.000   0.000
  2        0.000   0.000  -0.000  -0.000  -0.000
  3        0.000   0.000   0.000  -0.000   0.000
  4        0.000   0.000  -0.000   0.000   0.000
  5        0.000   0.000   0.000  -0.000  -0.000
  6        0.000   0.000   0.000   0.000   0.000
  7        0.000   0.000  -0.000  -0.000   0.000
  8        0.000   0.000  -0.000   0.000   0.000
  9        0.000   0.000  -0.000   0.000   0.000
 10        0.000   0.000  -0.000  -0.000   0.000
 11        0.000   0.000  -0.000  -0.000   0.000
 12        0.000   0.000  -0.000  -0.000   0.000
 13       -0.000   0.000   0.000  -0.000   0.000
 14       -0.000   0.000  -0.000   0.000   0.000
 15       -0.000   0.000   0.000  -0.000   0.000
 16       -0.000   0.000  -0.000   0.000   0.000
 17       -0.000   0.000  -0.000   0.000   0.000
 18       -0.000   0.000  -0.000  -0.000   0.000
 19       -0.000  -0.000  -0.000   0.000  -0.000
 20       -0.000  -0.000  -0.000  -0.000  -0.000
 21        0.000   0.000   0.000  -0.000   0.000
 22       -0.000  -0.000   0.000   0.000   0.000
 23        0.000  -0.000  -0.000   0.000  -0.000
 24        0.000  -0.000  -0.000  -0.000  -0.000
 25       -0.000  -0.000  -0.000   0.000   0.000
 26        0.000  -0.000  -0.000   0.000   0.000
 27        0.000  -0.000  -0.000   0.000  -0.000
 28       -0.000  -0.000   0.000   0.000  -0.000
 29       -0.000   0.000   0.000  -0.000  -0.000
 30       -0.000  -0.000   0.000   0.000  -0.000
 31       -0.000  -0.000   0.000   0.000  -0.000
 32        0.000  -0.000   0.000  -0.000   0.000
 33       -0.000  -0.000   0.000   0.000  -0.000
 34        0.000  -0.000  -0.000   0.000  -0.000
 35        0.000  -0.000  -0.000   0.000  -0.000
 36       -0.000   0.000   0.000   0.000   0.000
 37       -0.000  -0.000   0.000   0.000  -0.000
 38       -0.000   0.000   0.000   0.000  -0.000
 39       -0.000   0.000   0.000   0.000  -0.000
 40       -0.000   0.000   0.000   0.000   0.000
 41       -0.000   0.000   0.000   0.000   0.000
 42       -0.000   0.000   0.000   0.000   0.000
 43       -0.000  -0.000   0.000   0.000  -0.000
 44       -0.000  -0.000   0.000   0.000  -0.000
 45       -0.000   0.000   0.000   0.000   0.000
 46       -0.000   0.000   0.000   0.000   0.000
 47       -0.000   0.000   0.000   0.000   0.000
 48       -0.000   0.000   0.000   0.000  -0.000
 49       -0.000   0.000   0.000   0.000  -0.000
 50       -0.000   0.000   0.000   0.000  -0.000
 51       -0.000   0.000   0.000   0.000  -0.000
 52       -0.000   0.000   0.000   0.000   0.000
 53       -0.000  -0.000   0.000   0.000  -0.000
 54       -0.000   0.000   0.000   0.000  -0.000
 55       -0.000   0.000   0.000   0.000  -0.000
 56       -0.000  -0.000   0.000   0.000  -0.000
 57       -0.000   0.000   0.000   0.000  -0.000
 58       -0.000   0.000   0.000   0.000  -0.000
 59       -0.000  -0.000   0.000   0.000  -0.000
 60       -0.000   0.000   0.000   0.000   0.000
 61       -0.000  -0.000   0.000   0.000  -0.000
 62       -0.000  -0.000   0.000   0.000  -0.000
 63       -0.000  -0.000   0.000   0.000  -0.000
 64       -0.000   0.000   0.000   0.000   0.000
 65       -0.000   0.000   0.000   0.000  -0.000
 66       -0.000   0.000   0.000   0.000   0.000
 67       -0.000  -0.000   0.000   0.000  -0.000
 68       -0.000   0.000   0.000   0.000  -0.000
 69       -0.000  -0.000   0.000   0.000  -0.000
 70       -0.000   0.000   0.000   0.000   0.000
 71       -0.000   0.000   0.000   0.000  -0.000
 72       -0.000   0.000   0.000   0.000   0.000
 73        0.000   0.000   0.000   0.000   0.000
 74        0.000  -0.000   0.000   0.000  -0.000
 75       -0.000  -0.000   0.000   0.000  -0.000
 76        0.000  -0.000   0.000   0.000   0.000
 77        0.000   0.000   0.000   0.000   0.000
 78       -0.000   0.000   0.000   0.000  -0.000
 79        0.000   0.000   0.000   0.000   0.000
 80       -0.000   0.000   0.000   0.000   0.000
 81       -0.000  -0.000   0.000   0.000  -0.000
 82        0.000   0.000   0.000   0.000   0.000
 83        0.000  -0.000   0.000   0.000  -0.000
 84        0.000   0.000   0.000   0.000   0.000
 85        0.000  -0.000   0.000   0.000  -0.000
 86        0.000  -0.000   0.000   0.000   0.000
 87        0.000  -0.000   0.000   0.000  -0.000
 88        0.000  -0.000   0.000   0.000  -0.000
 89        0.000   0.000   0.000   0.000   0.000
 90        0.000  -0.000   0.000   0.000  -0.000
 91        0.000  -0.000   0.000   0.000   0.000
 92        0.000  -0.000   0.000   0.000  -0.000
 93       -0.000   0.000   0.000   0.000   0.000
 94        0.000   0.000   0.000   0.000   0.000
 95       -0.000  -0.000   0.000   0.000  -0.000
 96        0.000  -0.000   0.000   0.000   0.000
 97        0.000  -0.000   0.000   0.000   0.000
 98        0.000  -0.000   0.000   0.000   0.000
 99        0.000   0.000   0.000   0.000   0.000
100        0.000  -0.000   0.000   0.000  -0.000
101        0.000  -0.000   0.000   0.000  -0.000
102        0.000  -0.000   0.000   0.000  -0.000
103        0.000  -0.000   0.000   0.000  -0.000
104        0.000  -0.000   0.000   0.000  -0.000
105        0.000  -0.000   0.000   0.000  -0.000
106        0.000  -0.000   0.000   0.000  -0.000
107        0.000   0.000   0.000   0.000   0.000
108        0.000   0.000   0.000   0.000   0.000
109        0.000   0.000  -0.000   0.000  -0.000
------------------------------------------------
tot        0.000  -0.000   0.000   0.000   0.000

 

 total amount of memory used by VASP on root node   108290. kBytes
========================================================================

   base      :      30000. kBytes
   nonlr-proj:      13611. kBytes
   fftplans  :      26017. kBytes
   grid      :      26227. kBytes
   one-center:        933. kBytes
   wavefun   :      11502. kBytes
 
  
  
 General timing and accounting informations for this job:
 ========================================================
  
                  Total CPU time used (sec):      101.248
                            User time (sec):       95.316
                          System time (sec):        5.932
                         Elapsed time (sec):      107.994
  
                   Maximum memory used (kb):      300728.
                   Average memory used (kb):           0.
  
                          Minor page faults:        70225
                          Major page faults:            9
                 Voluntary context switches:        28232
