       N       E                     dE             d eps       ncg     rms          rms(c)
DAV:   1     0.158460912915E+05    0.15846E+05   -0.33975E+05  2344   0.150E+03
DAV:   2     0.590105874161E+04   -0.99450E+04   -0.87272E+04  2472   0.398E+02
DAV:   3     0.690799710745E+03   -0.52103E+04   -0.49446E+04  2936   0.267E+02
DAV:   4    -0.903876822993E+03   -0.15947E+04   -0.14637E+04  3264   0.141E+02
DAV:   5    -0.107864916778E+04   -0.17477E+03   -0.17330E+03  3880   0.613E+01    0.157E+02
RMM:   6    -0.886781417535E+03    0.19187E+03   -0.56984E+02  3222   0.304E+01    0.100E+02
RMM:   7    -0.961944289638E+03   -0.75163E+02   -0.11728E+03  3480   0.318E+01    0.135E+02
RMM:   8    -0.139558589805E+04   -0.43364E+03   -0.87696E+02  3147   0.534E+01    0.301E+02
RMM:   9    -0.206125655184E+04   -0.66567E+03   -0.13197E+03  3700   0.366E+01    0.406E+02
RMM:  10    -0.203711096008E+04    0.24146E+02   -0.75019E+02  3454   0.337E+01    0.413E+02
RMM:  11    -0.162597586503E+04    0.41114E+03   -0.21594E+02  3318   0.159E+01    0.379E+02
RMM:  12    -0.942864979213E+03    0.68311E+03   -0.17894E+02  3258   0.140E+01    0.184E+02
RMM:  13    -0.881800887107E+03    0.61064E+02   -0.57899E+01  3272   0.767E+00    0.760E+01
RMM:  14    -0.883654829243E+03   -0.18539E+01   -0.51975E+01  3239   0.812E+00    0.623E+01
RMM:  15    -0.907025754585E+03   -0.23371E+02   -0.44337E+01  3263   0.838E+00    0.129E+02
RMM:  16    -0.887327381243E+03    0.19698E+02   -0.99350E+00  3256   0.392E+00    0.610E+01
RMM:  17    -0.892400339159E+03   -0.50730E+01   -0.14546E+01  3238   0.443E+00    0.750E+01
RMM:  18    -0.885646868964E+03    0.67535E+01   -0.89380E+00  3143   0.433E+00    0.558E+01
RMM:  19    -0.884020611721E+03    0.16263E+01   -0.85195E+00  3259   0.333E+00    0.479E+01
RMM:  20    -0.885861463111E+03   -0.18409E+01   -0.59432E+00  3195   0.286E+00    0.452E+01
RMM:  21    -0.887596240268E+03   -0.17348E+01   -0.31149E+00  3297   0.178E+00    0.442E+01
RMM:  22    -0.889779450559E+03   -0.21832E+01   -0.46453E+00  3190   0.248E+00    0.419E+01
RMM:  23    -0.891604931905E+03   -0.18255E+01   -0.64707E+00  3350   0.199E+00    0.410E+01
RMM:  24    -0.891772321380E+03   -0.16739E+00   -0.21223E+00  3496   0.114E+00    0.415E+01
RMM:  25    -0.893467783507E+03   -0.16955E+01   -0.51276E+00  3799   0.820E-01    0.480E+01
RMM:  26    -0.894106742195E+03   -0.63896E+00   -0.35901E+00  3648   0.762E-01    0.510E+01
RMM:  27    -0.894624029257E+03   -0.51729E+00   -0.28275E+00  3742   0.596E-01    0.525E+01
RMM:  28    -0.896046171022E+03   -0.14221E+01   -0.38239E+00  3704   0.652E-01    0.588E+01
RMM:  29    -0.896264890989E+03   -0.21872E+00   -0.23953E+00  3531   0.550E-01    0.593E+01
RMM:  30    -0.896579520964E+03   -0.31463E+00   -0.17720E+00  3529   0.447E-01    0.618E+01
RMM:  31    -0.896592897843E+03   -0.13377E-01   -0.10576E+00  3486   0.345E-01    0.635E+01
RMM:  32    -0.896906850366E+03   -0.31395E+00   -0.68562E-01  3340   0.295E-01    0.657E+01
RMM:  33    -0.896856739533E+03    0.50111E-01   -0.48835E-01  3181   0.301E-01    0.678E+01
RMM:  34    -0.897456026735E+03   -0.59929E+00   -0.33544E-01  3263   0.301E-01    0.695E+01
RMM:  35    -0.897474282753E+03   -0.18256E-01   -0.17648E-01  2867   0.324E-01    0.696E+01
RMM:  36    -0.897525753871E+03   -0.51471E-01   -0.83690E-02  2937   0.227E-01    0.700E+01
RMM:  37    -0.897511979002E+03    0.13775E-01   -0.36375E-02  2780   0.136E-01    0.699E+01
RMM:  38    -0.897915359604E+03   -0.40338E+00   -0.21208E-02  2837   0.136E-01    0.714E+01
RMM:  39    -0.897851159583E+03    0.64200E-01   -0.19495E-02  2556   0.209E-01    0.712E+01
RMM:  40    -0.897778975407E+03    0.72184E-01   -0.14750E-02  2599   0.194E-01    0.713E+01
RMM:  41    -0.897544110134E+03    0.23487E+00   -0.95075E-03  2701   0.141E-01    0.705E+01
RMM:  42    -0.897418491260E+03    0.12562E+00   -0.33370E-02  2494   0.358E-01    0.698E+01
RMM:  43    -0.897511424744E+03   -0.92933E-01   -0.76669E-03  2305   0.186E-01    0.698E+01
RMM:  44    -0.896769970024E+03    0.74145E+00   -0.16161E-02  2854   0.191E-01    0.668E+01
RMM:  45    -0.896998254265E+03   -0.22828E+00   -0.10905E-02  2374   0.188E-01    0.675E+01
RMM:  46    -0.897060125722E+03   -0.61871E-01   -0.65440E-03  2452   0.161E-01    0.676E+01
RMM:  47    -0.897046354594E+03    0.13771E-01   -0.28910E-03  2162   0.983E-02    0.676E+01
RMM:  48    -0.897003654439E+03    0.42700E-01   -0.12234E-03  1941   0.697E-02    0.674E+01
RMM:  49    -0.897062032466E+03   -0.58378E-01   -0.38391E-03  2215   0.913E-02    0.676E+01
RMM:  50    -0.897054710140E+03    0.73223E-02   -0.38537E-03  2123   0.110E-01    0.675E+01
RMM:  51    -0.879203891101E+03    0.17851E+02   -0.11205E+02  3249   0.964E+00    0.573E+01
RMM:  52    -0.877332261558E+03    0.18716E+01   -0.94722E+00  3186   0.364E+00    0.354E+01
RMM:  53    -0.879544315316E+03   -0.22121E+01   -0.63592E+00  3211   0.281E+00    0.398E+01
RMM:  54    -0.882031621305E+03   -0.24873E+01   -0.58906E+00  3191   0.281E+00    0.389E+01
RMM:  55    -0.882565852483E+03   -0.53423E+00   -0.33509E+00  3248   0.175E+00    0.435E+01
RMM:  56    -0.874261488197E+03    0.83044E+01   -0.26619E+01  3213   0.631E+00    0.348E+01
RMM:  57    -0.880349711335E+03   -0.60882E+01   -0.18968E+01  3235   0.483E+00    0.480E+01
RMM:  58    -0.873889259946E+03    0.64605E+01   -0.57863E+00  3104   0.347E+00    0.363E+01
RMM:  59    -0.872458169895E+03    0.14311E+01   -0.30591E+00  3240   0.213E+00    0.311E+01
RMM:  60    -0.870708196947E+03    0.17500E+01   -0.23017E+00  3228   0.174E+00    0.272E+01
RMM:  61    -0.871302498683E+03   -0.59430E+00   -0.16471E+01  3210   0.448E+00    0.230E+01
RMM:  62    -0.873454640267E+03   -0.21521E+01   -0.56326E+00  3032   0.406E+00    0.220E+01
RMM:  63    -0.875120810091E+03   -0.16662E+01   -0.36742E+00  3228   0.216E+00    0.249E+01
RMM:  64    -0.874254313905E+03    0.86650E+00   -0.23242E+00  3221   0.188E+00    0.216E+01
RMM:  65    -0.874089930706E+03    0.16438E+00   -0.27216E+00  3171   0.202E+00    0.218E+01
RMM:  66    -0.873511591596E+03    0.57834E+00   -0.25969E+00  3233   0.203E+00    0.197E+01
RMM:  67    -0.872857689030E+03    0.65390E+00   -0.28895E+00  3207   0.220E+00    0.154E+01
RMM:  68    -0.873586817573E+03   -0.72913E+00   -0.11350E+00  3201   0.134E+00    0.142E+01
RMM:  69    -0.874399873995E+03   -0.81306E+00   -0.27968E+00  3151   0.201E+00    0.154E+01
RMM:  70    -0.874091809788E+03    0.30806E+00   -0.55870E-01  3135   0.773E-01    0.131E+01
RMM:  71    -0.873446420061E+03    0.64539E+00   -0.62791E-01  3231   0.940E-01    0.150E+01
RMM:  72    -0.873468873776E+03   -0.22454E-01   -0.95956E-02  3068   0.394E-01    0.149E+01
RMM:  73    -0.873360847689E+03    0.10803E+00   -0.13124E-01  3214   0.413E-01    0.150E+01
RMM:  74    -0.873496516743E+03   -0.13567E+00   -0.69965E-02  2979   0.397E-01    0.150E+01
RMM:  75    -0.873751252448E+03   -0.25474E+00   -0.37940E-01  3065   0.690E-01    0.154E+01
RMM:  76    -0.873674770931E+03    0.76482E-01   -0.98136E-01  3211   0.114E+00    0.137E+01
RMM:  77    -0.873483251581E+03    0.19152E+00   -0.56674E-01  3195   0.945E-01    0.139E+01
RMM:  78    -0.873402152747E+03    0.81099E-01   -0.29397E-01  3148   0.742E-01    0.132E+01
RMM:  79    -0.873483068604E+03   -0.80916E-01   -0.31362E-01  2999   0.833E-01    0.128E+01
RMM:  80    -0.873724910915E+03   -0.24184E+00   -0.63273E-01  3059   0.106E+00    0.130E+01
RMM:  81    -0.873276720246E+03    0.44819E+00   -0.95562E-01  3175   0.118E+00    0.126E+01
RMM:  82    -0.872975768044E+03    0.30095E+00   -0.21145E-01  3095   0.580E-01    0.121E+01
RMM:  83    -0.872693209339E+03    0.28256E+00   -0.23309E-01  3074   0.608E-01    0.116E+01
RMM:  84    -0.872439614634E+03    0.25359E+00   -0.37478E-01  3094   0.748E-01    0.112E+01
RMM:  85    -0.872444471353E+03   -0.48567E-02   -0.59187E-02  3019   0.261E-01    0.113E+01
RMM:  86    -0.872465880048E+03   -0.21409E-01   -0.20169E+00  3130   0.181E+00    0.124E+01
RMM:  87    -0.872346207227E+03    0.11967E+00   -0.78477E-01  3043   0.111E+00    0.105E+01
RMM:  88    -0.872413551164E+03   -0.67344E-01   -0.15605E-01  3175   0.472E-01    0.103E+01
RMM:  89    -0.872531762193E+03   -0.11821E+00   -0.14070E-01  3114   0.472E-01    0.101E+01
RMM:  90    -0.872376758812E+03    0.15500E+00   -0.22381E-01  2991   0.675E-01    0.942E+00
RMM:  91    -0.873281698655E+03   -0.90494E+00   -0.34711E+00  3038   0.258E+00    0.924E+00
RMM:  92    -0.873320148221E+03   -0.38450E-01   -0.85807E-01  3126   0.105E+00    0.808E+00
RMM:  93    -0.873354435734E+03   -0.34288E-01   -0.21521E-01  3019   0.623E-01    0.781E+00
RMM:  94    -0.873343207619E+03    0.11228E-01   -0.24681E-01  3194   0.515E-01    0.774E+00
RMM:  95    -0.873281080200E+03    0.62127E-01   -0.10168E-01  3191   0.330E-01    0.784E+00
RMM:  96    -0.872772118007E+03    0.50896E+00   -0.14486E+00  3154   0.143E+00    0.763E+00
RMM:  97    -0.872817275205E+03   -0.45157E-01   -0.24758E-01  3179   0.471E-01    0.743E+00
RMM:  98    -0.872853684977E+03   -0.36410E-01   -0.22837E-01  2924   0.647E-01    0.708E+00
RMM:  99    -0.872833388425E+03    0.20297E-01   -0.24959E-01  3188   0.434E-01    0.680E+00
RMM: 100    -0.872735231236E+03    0.98157E-01   -0.24962E-01  3034   0.537E-01
   1 F= -.89367744E+03 E0= -.89367733E+03  d E =-.893677E+03  mag=     1.3729
       N       E                     dE             d eps       ncg     rms          rms(c)
DAV:   1    -0.872749754767E+03    0.83634E-01   -0.23577E+01  2824   0.616E+00    0.548E+00
RMM:   2    -0.873307809925E+03   -0.55806E+00   -0.40936E+00  3085   0.336E+00    0.100E+01
RMM:   3    -0.872933498602E+03    0.37431E+00   -0.76600E-01  3149   0.123E+00    0.504E+00
RMM:   4    -0.872992012744E+03   -0.58514E-01   -0.24099E-01  3335   0.644E-01    0.520E+00
RMM:   5    -0.873470088279E+03   -0.47808E+00   -0.10142E+00  3102   0.132E+00    0.961E+00
RMM:   6    -0.873057969043E+03    0.41212E+00   -0.54951E-01  3062   0.981E-01    0.191E+00
RMM:   7    -0.873177816076E+03   -0.11985E+00   -0.12092E-01  3159   0.470E-01    0.417E+00
RMM:   8    -0.873184965883E+03   -0.71498E-02   -0.11532E-01  2913   0.485E-01    0.379E+00
RMM:   9    -0.873171990070E+03    0.12976E-01   -0.75702E-02  3450   0.261E-01    0.353E+00
RMM:  10    -0.873174095173E+03   -0.21051E-02   -0.47826E-02  3233   0.267E-01    0.320E+00
RMM:  11    -0.873178202188E+03   -0.41070E-02   -0.61754E-02  3207   0.278E-01    0.265E+00
RMM:  12    -0.873193856624E+03   -0.15654E-01   -0.46861E-02  3240   0.230E-01    0.265E+00
RMM:  13    -0.873204598298E+03   -0.10742E-01   -0.39765E-02  3155   0.210E-01    0.253E+00
RMM:  14    -0.873225299954E+03   -0.20702E-01   -0.12620E-01  3026   0.407E-01    0.215E+00
RMM:  15    -0.873235588146E+03   -0.10288E-01   -0.11605E-01  3145   0.290E-01    0.179E+00
RMM:  16    -0.873240293590E+03   -0.47054E-02   -0.90815E-02  3097   0.333E-01    0.141E+00
RMM:  17    -0.873245355809E+03   -0.50622E-02   -0.46043E-02  3040   0.165E-01    0.124E+00
RMM:  18    -0.873247954062E+03   -0.25983E-02   -0.11052E-02  2969   0.109E-01    0.116E+00
RMM:  19    -0.873244256074E+03    0.36980E-02   -0.43465E-03  2527   0.807E-02    0.120E+00
RMM:  20    -0.873249816394E+03   -0.55603E-02   -0.12750E-02  2692   0.135E-01    0.102E+00
RMM:  21    -0.873254612687E+03   -0.47963E-02   -0.31000E-02  3016   0.164E-01    0.800E-01
RMM:  22    -0.873256716380E+03   -0.21037E-02   -0.13889E-02  2808   0.101E-01    0.681E-01
RMM:  23    -0.873258672389E+03   -0.19560E-02   -0.11634E-02  2794   0.107E-01    0.577E-01
RMM:  24    -0.873261797850E+03   -0.31255E-02   -0.34097E-02  2989   0.175E-01    0.345E-01
RMM:  25    -0.873264516501E+03   -0.27187E-02   -0.24861E-02  2653   0.877E-02    0.251E-01
RMM:  26    -0.873265607235E+03   -0.10907E-02   -0.64478E-03  2404   0.730E-02    0.174E-01
RMM:  27    -0.873265769789E+03   -0.16255E-03   -0.31811E-03  1960   0.832E-02    0.265E-01
RMM:  28    -0.873266186451E+03   -0.41666E-03   -0.16632E-03  1634   0.445E-02    0.229E-01
RMM:  29    -0.873266590262E+03   -0.40381E-03   -0.27552E-03  1614   0.351E-02    0.213E-01
RMM:  30    -0.873266651363E+03   -0.61101E-04   -0.41397E-04  1514   0.325E-02
   2 F= -.89421145E+03 E0= -.89421097E+03  d E =-.534005E+00  mag=     1.9672
       N       E                     dE             d eps       ncg     rms          rms(c)
DAV:   1    -0.873278032792E+03   -0.11443E-01   -0.17073E-01  2696   0.477E-01    0.236E-01
RMM:   2    -0.873280111662E+03   -0.20789E-02   -0.15524E-02  3149   0.205E-01    0.563E-01
RMM:   3    -0.873278747898E+03    0.13638E-02   -0.26408E-03  2502   0.856E-02    0.180E-01
RMM:   4    -0.873279328842E+03   -0.58094E-03   -0.11401E-03  2115   0.413E-02    0.132E-01
RMM:   5    -0.873279730193E+03   -0.40135E-03   -0.97820E-04  1620   0.479E-02    0.115E-01
RMM:   6    -0.873280222596E+03   -0.49240E-03   -0.25124E-03  1737   0.426E-02    0.127E-01
RMM:   7    -0.873280326503E+03   -0.10391E-03   -0.58528E-04  1512   0.425E-02    0.659E-02
RMM:   8    -0.873280436959E+03   -0.11046E-03   -0.55796E-04  1488   0.284E-02    0.448E-02
RMM:   9    -0.873280574414E+03   -0.13746E-03   -0.31397E-04  1481   0.321E-02    0.361E-02
RMM:  10    -0.873280824647E+03   -0.25023E-03   -0.12793E-03  1522   0.290E-02    0.354E-02
RMM:  11    -0.873280958160E+03   -0.13351E-03   -0.38091E-04  1488   0.299E-02    0.325E-02
RMM:  12    -0.873281221829E+03   -0.26367E-03   -0.14764E-03  1516   0.277E-02    0.329E-02
RMM:  13    -0.873281408461E+03   -0.18663E-03   -0.70779E-04  1527   0.286E-02    0.287E-02
RMM:  14    -0.873281629484E+03   -0.22102E-03   -0.14475E-03  1505   0.265E-02    0.292E-02
RMM:  15    -0.873281887186E+03   -0.25770E-03   -0.16123E-03  1551   0.314E-02    0.239E-02
RMM:  16    -0.873282275889E+03   -0.38870E-03   -0.52022E-03  1576   0.341E-02    0.285E-02
RMM:  17    -0.873282582682E+03   -0.30679E-03   -0.19286E-03  1560   0.337E-02    0.197E-02
RMM:  18    -0.873282913025E+03   -0.33034E-03   -0.36916E-03  1557   0.316E-02    0.271E-02
RMM:  19    -0.873283114983E+03   -0.20196E-03   -0.75179E-04  1522   0.280E-02    0.206E-02
RMM:  20    -0.873283146972E+03   -0.31989E-04   -0.28064E-04  1463   0.213E-02
   3 F= -.89422816E+03 E0= -.89422667E+03  d E =-.550722E+00  mag=     1.9734
       N       E                     dE             d eps       ncg     rms          rms(c)
DAV:   1    -0.873299622087E+03   -0.16507E-01   -0.67885E-01  2832   0.945E-01    0.287E-01
RMM:   2    -0.873303046922E+03   -0.34248E-02   -0.37785E-02  3029   0.343E-01    0.445E-01
RMM:   3    -0.873302776137E+03    0.27079E-03   -0.68611E-03  3323   0.109E-01    0.219E-01
RMM:   4    -0.873303236013E+03   -0.45988E-03   -0.23284E-03  2613   0.517E-02    0.184E-01
RMM:   5    -0.873303516889E+03   -0.28088E-03   -0.13452E-03  2179   0.474E-02    0.123E-01
RMM:   6    -0.873303926550E+03   -0.40966E-03   -0.19869E-03  1969   0.469E-02    0.776E-02
RMM:   7    -0.873304073866E+03   -0.14732E-03   -0.60403E-04  1538   0.395E-02    0.488E-02
RMM:   8    -0.873304190826E+03   -0.11696E-03   -0.65776E-04  1511   0.339E-02    0.431E-02
RMM:   9    -0.873304267983E+03   -0.77157E-04   -0.24285E-04  1470   0.317E-02
   4 F= -.89424973E+03 E0= -.89424786E+03  d E =-.572285E+00  mag=     1.9537
       N       E                     dE             d eps       ncg     rms          rms(c)
DAV:   1    -0.873315858965E+03   -0.11668E-01   -0.27201E+00  2616   0.189E+00    0.559E-01
RMM:   2    -0.873333361225E+03   -0.17502E-01   -0.14932E-01  3021   0.680E-01    0.213E+00
RMM:   3    -0.873326606321E+03    0.67549E-02   -0.28174E-02  3430   0.223E-01    0.130E+00
RMM:   4    -0.873327058276E+03   -0.45195E-03   -0.87248E-03  3296   0.100E-01    0.847E-01
RMM:   5    -0.873329519231E+03   -0.24610E-02   -0.60460E-03  3347   0.867E-02    0.676E-01
RMM:   6    -0.873330909903E+03   -0.13907E-02   -0.42216E-03  3059   0.672E-02    0.656E-01
RMM:   7    -0.873330745371E+03    0.16453E-03   -0.21558E-03  2734   0.568E-02    0.354E-01
RMM:   8    -0.873331308276E+03   -0.56290E-03   -0.16602E-03  2400   0.564E-02    0.106E-01
RMM:   9    -0.873331861027E+03   -0.55275E-03   -0.12111E-03  2006   0.485E-02    0.927E-02
RMM:  10    -0.873331997202E+03   -0.13618E-03   -0.55651E-04  1636   0.425E-02    0.746E-02
RMM:  11    -0.873332131588E+03   -0.13439E-03   -0.76983E-04  1613   0.405E-02    0.500E-02
RMM:  12    -0.873332304335E+03   -0.17275E-03   -0.70484E-04  1545   0.405E-02    0.375E-02
RMM:  13    -0.873332467967E+03   -0.16363E-03   -0.93982E-04  1512   0.364E-02    0.420E-02
RMM:  14    -0.873332519989E+03   -0.52022E-04   -0.21458E-04  1467   0.322E-02
   5 F= -.89427886E+03 E0= -.89427519E+03  d E =-.601421E+00  mag=     1.9058
       N       E                     dE             d eps       ncg     rms          rms(c)
DAV:   1    -0.873275060460E+03    0.57408E-01   -0.10830E+01  2464   0.378E+00    0.111E+00
RMM:   2    -0.873339113994E+03   -0.64054E-01   -0.56436E-01  3011   0.134E+00    0.470E+00
RMM:   3    -0.873337084428E+03    0.20296E-02   -0.10943E-01  3414   0.437E-01    0.595E+00
RMM:   4    -0.873339691525E+03   -0.26071E-02   -0.64295E-02  3433   0.270E-01    0.682E+00
RMM:   5    -0.873328016864E+03    0.11675E-01   -0.29220E-02  3477   0.179E-01    0.605E+00
RMM:   6    -0.873305794169E+03    0.22223E-01   -0.36976E-02  3196   0.246E-01    0.105E+00
RMM:   7    -0.873338504869E+03   -0.32711E-01   -0.17214E-02  2866   0.223E-01    0.834E-01
RMM:   8    -0.873339341822E+03   -0.83695E-03   -0.12819E-02  2965   0.158E-01    0.130E+00
RMM:   9    -0.873341197790E+03   -0.18560E-02   -0.16140E-02  3043   0.154E-01    0.276E+00
RMM:  10    -0.873332630165E+03    0.85676E-02   -0.49896E-03  2845   0.122E-01    0.237E+00
RMM:  11    -0.873331355220E+03    0.12749E-02   -0.24826E-03  2671   0.629E-02    0.210E+00
RMM:  12    -0.873333452710E+03   -0.20975E-02   -0.79342E-04  1968   0.514E-02    0.232E+00
RMM:  13    -0.873330055206E+03    0.33975E-02   -0.41017E-04  1691   0.437E-02    0.166E+00
RMM:  14    -0.873333860891E+03   -0.38057E-02   -0.22655E-03  2754   0.641E-02    0.205E+00
RMM:  15    -0.873330599813E+03    0.32611E-02   -0.30886E-03  2920   0.717E-02    0.179E+00
RMM:  16    -0.873329559658E+03    0.10402E-02   -0.19523E-03  2521   0.635E-02    0.135E+00
RMM:  17    -0.873330502810E+03   -0.94315E-03   -0.11767E-03  2154   0.546E-02    0.106E+00
RMM:  18    -0.873331674496E+03   -0.11717E-02   -0.47420E-04  1618   0.431E-02    0.941E-01
RMM:  19    -0.873332527403E+03   -0.85291E-03   -0.18906E-04  1483   0.361E-02    0.968E-01
RMM:  20    -0.873331775909E+03    0.75149E-03   -0.21748E-04  1490   0.338E-02    0.877E-01
RMM:  21    -0.873330714763E+03    0.10611E-02   -0.66825E-04  1822   0.422E-02    0.634E-01
RMM:  22    -0.873331318741E+03   -0.60398E-03   -0.39995E-04  1703   0.443E-02    0.585E-01
RMM:  23    -0.873331512410E+03   -0.19367E-03   -0.17745E-04  1483   0.364E-02    0.577E-01
RMM:  24    -0.873332096112E+03   -0.58370E-03   -0.23646E-04  1525   0.349E-02    0.686E-01
RMM:  25    -0.873332143295E+03   -0.47183E-04   -0.13223E-03  2234   0.559E-02    0.498E-01
RMM:  26    -0.873333140344E+03   -0.99705E-03   -0.42260E-04  1749   0.406E-02    0.513E-01
RMM:  27    -0.873333012549E+03    0.12779E-03   -0.21021E-04  1529   0.413E-02    0.382E-01
RMM:  28    -0.873333984297E+03   -0.97175E-03   -0.48426E-04  1683   0.352E-02    0.394E-01
RMM:  29    -0.873334521721E+03   -0.53742E-03   -0.13883E-03  2177   0.496E-02    0.313E-01
RMM:  30    -0.873335034708E+03   -0.51299E-03   -0.10577E-03  1910   0.534E-02    0.310E-01
RMM:  31    -0.873334991225E+03    0.43483E-04   -0.11752E-03  1946   0.480E-02    0.279E-01
RMM:  32    -0.873335257060E+03   -0.26584E-03   -0.38993E-04  1517   0.385E-02    0.232E-01
RMM:  33    -0.873335543742E+03   -0.28668E-03   -0.66323E-04  1548   0.335E-02    0.249E-01
RMM:  34    -0.873335671646E+03   -0.12790E-03   -0.53226E-04  1578   0.385E-02    0.150E-01
RMM:  35    -0.873335767594E+03   -0.95949E-04   -0.92654E-04  1534   0.344E-02
   6 F= -.89428389E+03 E0= -.89427714E+03  d E =-.606446E+00  mag=     1.7937
       N       E                     dE             d eps       ncg     rms          rms(c)
DAV:   1    -0.873330577366E+03    0.50943E-02   -0.24224E+00  2616   0.180E+00    0.534E-01
RMM:   2    -0.873343745824E+03   -0.13168E-01   -0.13204E-01  3055   0.634E-01    0.990E-01
RMM:   3    -0.873341644573E+03    0.21013E-02   -0.21216E-02  3315   0.195E-01    0.703E-01
RMM:   4    -0.873341299828E+03    0.34475E-03   -0.74777E-03  3235   0.980E-02    0.353E-01
RMM:   5    -0.873342634266E+03   -0.13344E-02   -0.37421E-03  3170   0.666E-02    0.366E-01
RMM:   6    -0.873343511886E+03   -0.87762E-03   -0.27623E-03  2663   0.569E-02    0.409E-01
RMM:   7    -0.873343404505E+03    0.10738E-03   -0.20980E-03  2592   0.624E-02    0.200E-01
RMM:   8    -0.873343837989E+03   -0.43348E-03   -0.85535E-04  1781   0.490E-02    0.147E-01
RMM:   9    -0.873343821449E+03    0.16540E-04   -0.22283E-04  1541   0.332E-02
   7 F= -.89429110E+03 E0= -.89428528E+03  d E =-.613659E+00  mag=     1.8308
       N       E                     dE             d eps       ncg     rms          rms(c)
DAV:   1    -0.873417054731E+03   -0.73217E-01   -0.98039E+00  2456   0.362E+00    0.109E+00
RMM:   2    -0.873460920051E+03   -0.43865E-01   -0.44167E-01  3007   0.122E+00    0.128E+00
RMM:   3    -0.873459568892E+03    0.13512E-02   -0.82144E-02  3273   0.383E-01    0.968E-01
RMM:   4    -0.873461244246E+03   -0.16754E-02   -0.34142E-02  3296   0.236E-01    0.627E-01
RMM:   5    -0.873463835234E+03   -0.25910E-02   -0.14334E-02  3439   0.128E-01    0.610E-01
RMM:   6    -0.873465440487E+03   -0.16053E-02   -0.11014E-02  3259   0.138E-01    0.272E-01
RMM:   7    -0.873466000882E+03   -0.56040E-03   -0.61438E-03  3325   0.791E-02    0.261E-01
RMM:   8    -0.873466169798E+03   -0.16892E-03   -0.34743E-03  3113   0.702E-02    0.194E-01
RMM:   9    -0.873466460855E+03   -0.29106E-03   -0.17471E-03  2572   0.477E-02    0.166E-01
RMM:  10    -0.873466501903E+03   -0.41049E-04   -0.73960E-04  1681   0.383E-02
   8 F= -.89441111E+03 E0= -.89440887E+03  d E =-.120009E+00  mag=     1.9248
       N       E                     dE             d eps       ncg     rms          rms(c)
DAV:   1    -0.873492609140E+03   -0.26148E-01   -0.15218E+01  2456   0.450E+00    0.130E+00
RMM:   2    -0.873547938478E+03   -0.55329E-01   -0.66726E-01  3005   0.151E+00    0.106E+00
RMM:   3    -0.873560355650E+03   -0.12417E-01   -0.14335E-01  3507   0.461E-01    0.871E-01
RMM:   4    -0.873563469235E+03   -0.31136E-02   -0.39698E-02  3371   0.228E-01    0.626E-01
RMM:   5    -0.873567017782E+03   -0.35485E-02   -0.27566E-02  3460   0.178E-01    0.343E-01
RMM:   6    -0.873567788018E+03   -0.77024E-03   -0.10015E-02  3361   0.974E-02    0.197E-01
RMM:   7    -0.873568337021E+03   -0.54900E-03   -0.12978E-02  3405   0.120E-01    0.135E-01
RMM:   8    -0.873568562208E+03   -0.22519E-03   -0.35008E-03  2737   0.707E-02    0.129E-01
RMM:   9    -0.873568663727E+03   -0.10152E-03   -0.14783E-03  2210   0.471E-02    0.110E-01
RMM:  10    -0.873568848259E+03   -0.18453E-03   -0.16986E-03  2330   0.455E-02    0.859E-02
RMM:  11    -0.873569125546E+03   -0.27729E-03   -0.18984E-03  1940   0.493E-02    0.380E-02
RMM:  12    -0.873569259758E+03   -0.13421E-03   -0.10358E-03  1650   0.390E-02    0.314E-02
RMM:  13    -0.873569324146E+03   -0.64388E-04   -0.28943E-04  1495   0.314E-02
   9 F= -.89451062E+03 E0= -.89451059E+03  d E =-.219516E+00  mag=     1.9999
       N       E                     dE             d eps       ncg     rms          rms(c)
DAV:   1    -0.873336994597E+03    0.23227E+00   -0.60857E+01  2584   0.902E+00    0.234E+00
RMM:   2    -0.873517281033E+03   -0.18029E+00   -0.23896E+00  2860   0.307E+00    0.192E+00
RMM:   3    -0.873570026603E+03   -0.52746E-01   -0.60397E-01  3491   0.898E-01    0.164E+00
RMM:   4    -0.873572132658E+03   -0.21061E-02   -0.15841E-01  3164   0.566E-01    0.118E+00
RMM:   5    -0.873595362259E+03   -0.23230E-01   -0.15335E-01  3465   0.371E-01    0.681E-01
RMM:   6    -0.873585727218E+03    0.96350E-02   -0.60224E-02  3404   0.277E-01    0.378E-01
RMM:   7    -0.873587858269E+03   -0.21311E-02   -0.66319E-02  3445   0.236E-01    0.279E-01
RMM:   8    -0.873587811095E+03    0.47174E-04   -0.10709E-02  3006   0.144E-01    0.248E-01
RMM:   9    -0.873588117553E+03   -0.30646E-03   -0.76503E-03  3402   0.842E-02    0.192E-01
RMM:  10    -0.873588581840E+03   -0.46429E-03   -0.49693E-03  3315   0.673E-02    0.138E-01
RMM:  11    -0.873589111141E+03   -0.52930E-03   -0.38757E-03  2877   0.592E-02    0.774E-02
RMM:  12    -0.873589224222E+03   -0.11308E-03   -0.17615E-03  2167   0.456E-02    0.464E-02
RMM:  13    -0.873589338499E+03   -0.11428E-03   -0.10243E-03  1822   0.383E-02    0.357E-02
RMM:  14    -0.873589430876E+03   -0.92377E-04   -0.51599E-04  1598   0.408E-02
  10 F= -.89452415E+03 E0= -.89452415E+03  d E =-.233049E+00  mag=     2.0000
       N       E                     dE             d eps       ncg     rms          rms(c)
DAV:   1    -0.873554520289E+03    0.34818E-01   -0.13133E+01  2776   0.425E+00    0.116E+00
RMM:   2    -0.873596590333E+03   -0.42070E-01   -0.55814E-01  2990   0.139E+00    0.854E-01
RMM:   3    -0.873606578986E+03   -0.99887E-02   -0.11306E-01  3403   0.412E-01    0.700E-01
RMM:   4    -0.873608349835E+03   -0.17708E-02   -0.33581E-02  3299   0.229E-01    0.448E-01
RMM:   5    -0.873611507631E+03   -0.31578E-02   -0.17727E-02  3392   0.135E-01    0.223E-01
RMM:   6    -0.873610904999E+03    0.60263E-03   -0.86881E-03  3337   0.101E-01    0.138E-01
RMM:   7    -0.873611294420E+03   -0.38942E-03   -0.57848E-03  3268   0.740E-02    0.109E-01
RMM:   8    -0.873611422534E+03   -0.12811E-03   -0.14982E-03  2139   0.491E-02    0.917E-02
RMM:   9    -0.873611560007E+03   -0.13747E-03   -0.13597E-03  2141   0.442E-02    0.666E-02
RMM:  10    -0.873611708764E+03   -0.14876E-03   -0.80327E-04  1684   0.385E-02    0.448E-02
RMM:  11    -0.873611887024E+03   -0.17826E-03   -0.11630E-03  1512   0.398E-02    0.256E-02
RMM:  12    -0.873611957350E+03   -0.70326E-04   -0.31051E-04  1444   0.309E-02
  11 F= -.89454972E+03 E0= -.89454972E+03  d E =-.258621E+00  mag=     2.0000
       N       E                     dE             d eps       ncg     rms          rms(c)
DAV:   1    -0.873645262194E+03   -0.33375E-01   -0.10918E+01  2480   0.397E+00    0.104E+00
RMM:   2    -0.873682199196E+03   -0.36937E-01   -0.49349E-01  2957   0.130E+00    0.959E-01
RMM:   3    -0.873691345818E+03   -0.91466E-02   -0.10187E-01  3389   0.380E-01    0.895E-01
RMM:   4    -0.873692510837E+03   -0.11650E-02   -0.32333E-02  3333   0.210E-01    0.656E-01
RMM:   5    -0.873697059353E+03   -0.45485E-02   -0.27948E-02  3364   0.164E-01    0.300E-01
RMM:   6    -0.873695810737E+03    0.12486E-02   -0.73748E-03  3245   0.103E-01    0.203E-01
RMM:   7    -0.873695190400E+03    0.62034E-03   -0.11684E-02  3300   0.102E-01    0.107E-01
RMM:   8    -0.873695309394E+03   -0.11899E-03   -0.21356E-03  2565   0.670E-02    0.956E-02
RMM:   9    -0.873695419213E+03   -0.10982E-03   -0.10368E-03  2180   0.347E-02    0.889E-02
RMM:  10    -0.873695511248E+03   -0.92035E-04   -0.66289E-04  1651   0.437E-02
  12 F= -.89463059E+03 E0= -.89463059E+03  d E =-.808696E-01  mag=     2.0000
       N       E                     dE             d eps       ncg     rms          rms(c)
DAV:   1    -0.873696662480E+03   -0.12433E-02   -0.70914E+00  2504   0.321E+00    0.823E-01
RMM:   2    -0.873720647257E+03   -0.23985E-01   -0.32869E-01  3007   0.105E+00    0.750E-01
RMM:   3    -0.873726938208E+03   -0.62910E-02   -0.70425E-02  3494   0.304E-01    0.693E-01
RMM:   4    -0.873727866368E+03   -0.92816E-03   -0.22370E-02  3344   0.163E-01    0.515E-01
RMM:   5    -0.873730583070E+03   -0.27167E-02   -0.17371E-02  3392   0.130E-01    0.233E-01
RMM:   6    -0.873730207697E+03    0.37537E-03   -0.56985E-03  3298   0.790E-02    0.152E-01
RMM:   7    -0.873729932940E+03    0.27476E-03   -0.63990E-03  3330   0.795E-02    0.882E-02
RMM:   8    -0.873730045795E+03   -0.11285E-03   -0.17996E-03  2453   0.498E-02    0.839E-02
RMM:   9    -0.873730108641E+03   -0.62846E-04   -0.57028E-04  1826   0.360E-02
  13 F= -.89466304E+03 E0= -.89466304E+03  d E =-.113313E+00  mag=     2.0000
       N       E                     dE             d eps       ncg     rms          rms(c)
DAV:   1    -0.873728658555E+03    0.13872E-02   -0.14755E+00  2800   0.146E+00    0.373E-01
RMM:   2    -0.873733760847E+03   -0.51023E-02   -0.69211E-02  2990   0.481E-01    0.332E-01
RMM:   3    -0.873735209943E+03   -0.14491E-02   -0.16106E-02  3561   0.141E-01    0.304E-01
RMM:   4    -0.873735506058E+03   -0.29612E-03   -0.49516E-03  3227   0.724E-02    0.233E-01
RMM:   5    -0.873736100359E+03   -0.59430E-03   -0.37134E-03  3156   0.611E-02    0.102E-01
RMM:   6    -0.873736204036E+03   -0.10368E-03   -0.16000E-03  2111   0.389E-02    0.632E-02
RMM:   7    -0.873736204896E+03   -0.86008E-06   -0.89610E-04  1995   0.433E-02
  14 F= -.89466815E+03 E0= -.89466815E+03  d E =-.118430E+00  mag=     2.0000
       N       E                     dE             d eps       ncg     rms          rms(c)
DAV:   1    -0.873737204107E+03   -0.10001E-02   -0.47171E+00  2416   0.265E+00    0.632E-01
RMM:   2    -0.873755651554E+03   -0.18447E-01   -0.26798E-01  3017   0.996E-01    0.470E-01
RMM:   3    -0.873761526892E+03   -0.58753E-02   -0.63181E-02  3465   0.300E-01    0.419E-01
RMM:   4    -0.873761821221E+03   -0.29433E-03   -0.16717E-02  3295   0.151E-01    0.315E-01
RMM:   5    -0.873763524729E+03   -0.17035E-02   -0.12180E-02  3392   0.114E-01    0.199E-01
RMM:   6    -0.873763596678E+03   -0.71949E-04   -0.41997E-03  3083   0.722E-02    0.118E-01
RMM:   7    -0.873763885987E+03   -0.28931E-03   -0.56581E-03  3285   0.779E-02    0.781E-02
RMM:   8    -0.873763930312E+03   -0.44326E-04   -0.11144E-03  2014   0.460E-02    0.735E-02
RMM:   9    -0.873763942463E+03   -0.12151E-04   -0.32153E-04  1564   0.326E-02
  15 F= -.89469714E+03 E0= -.89469714E+03  d E =-.289886E-01  mag=     2.0000
       N       E                     dE             d eps       ncg     rms          rms(c)
DAV:   1    -0.873764304290E+03   -0.37398E-03   -0.12180E+00  2592   0.134E+00    0.312E-01
RMM:   2    -0.873769081247E+03   -0.47770E-02   -0.65820E-02  2972   0.504E-01    0.240E-01
RMM:   3    -0.873770848319E+03   -0.17671E-02   -0.18890E-02  3613   0.154E-01    0.216E-01
RMM:   4    -0.873771048670E+03   -0.20035E-03   -0.50416E-03  3181   0.768E-02    0.173E-01
RMM:   5    -0.873771553225E+03   -0.50455E-03   -0.33764E-03  3113   0.646E-02    0.106E-01
RMM:   6    -0.873771747872E+03   -0.19465E-03   -0.17349E-03  2111   0.434E-02    0.608E-02
RMM:   7    -0.873771855973E+03   -0.10810E-03   -0.10432E-03  2084   0.466E-02    0.362E-02
RMM:   8    -0.873771930472E+03   -0.74499E-04   -0.61934E-04  1638   0.373E-02
  16 F= -.89470577E+03 E0= -.89470577E+03  d E =-.376139E-01  mag=     2.0000
       N       E                     dE             d eps       ncg     rms          rms(c)
DAV:   1    -0.873746774844E+03    0.25081E-01   -0.48724E+00  2424   0.269E+00    0.619E-01
RMM:   2    -0.873765749729E+03   -0.18975E-01   -0.26610E-01  2966   0.999E-01    0.467E-01
RMM:   3    -0.873772045439E+03   -0.62957E-02   -0.68089E-02  3565   0.305E-01    0.413E-01
RMM:   4    -0.873772352024E+03   -0.30659E-03   -0.17917E-02  3266   0.156E-01    0.315E-01
RMM:   5    -0.873774038528E+03   -0.16865E-02   -0.12750E-02  3389   0.121E-01    0.202E-01
RMM:   6    -0.873774258953E+03   -0.22042E-03   -0.49037E-03  3086   0.746E-02    0.116E-01
RMM:   7    -0.873774611441E+03   -0.35249E-03   -0.60464E-03  3323   0.835E-02    0.795E-02
RMM:   8    -0.873774683191E+03   -0.71750E-04   -0.14598E-03  2165   0.474E-02    0.774E-02
RMM:   9    -0.873774697886E+03   -0.14695E-04   -0.41490E-04  1648   0.359E-02
  17 F= -.89470981E+03 E0= -.89470981E+03  d E =-.416610E-01  mag=     2.0000
       N       E                     dE             d eps       ncg     rms          rms(c)
DAV:   1    -0.873770788839E+03    0.38944E-02   -0.10330E+00  2736   0.124E+00    0.314E-01
RMM:   2    -0.873774519275E+03   -0.37304E-02   -0.60581E-02  3005   0.465E-01    0.224E-01
RMM:   3    -0.873775648491E+03   -0.11292E-02   -0.12122E-02  3230   0.141E-01    0.194E-01
RMM:   4    -0.873775641999E+03    0.64919E-05   -0.25222E-03  2614   0.751E-02    0.138E-01
RMM:   5    -0.873776172887E+03   -0.53089E-03   -0.28208E-03  2579   0.630E-02    0.885E-02
RMM:   6    -0.873776103665E+03    0.69222E-04   -0.76299E-04  1631   0.460E-02
  18 F= -.89471063E+03 E0= -.89471063E+03  d E =-.424744E-01  mag=     2.0000
       N       E                     dE             d eps       ncg     rms          rms(c)
DAV:   1    -0.873775672210E+03    0.50068E-03   -0.14521E-01  2808   0.466E-01    0.113E-01
RMM:   2    -0.873776103062E+03   -0.43085E-03   -0.71853E-03  2768   0.168E-01    0.840E-02
RMM:   3    -0.873776239538E+03   -0.13648E-03   -0.15277E-03  2327   0.538E-02    0.677E-02
RMM:   4    -0.873776312673E+03   -0.73134E-04   -0.37277E-04  1515   0.383E-02
  19 F= -.89471106E+03 E0= -.89471106E+03  d E =-.429062E-01  mag=     2.0000
       N       E                     dE             d eps       ncg     rms          rms(c)
DAV:   1    -0.873774202994E+03    0.20365E-02   -0.53868E+00  2384   0.263E+00    0.622E-01
RMM:   2    -0.873788177197E+03   -0.13974E-01   -0.17673E-01  2953   0.769E-01    0.484E-01
RMM:   3    -0.873791826846E+03   -0.36496E-02   -0.39980E-02  3374   0.206E-01    0.406E-01
RMM:   4    -0.873792350615E+03   -0.52377E-03   -0.79924E-03  3211   0.103E-01    0.304E-01
RMM:   5    -0.873794409972E+03   -0.20594E-02   -0.99655E-03  3214   0.895E-02    0.176E-01
RMM:   6    -0.873794112365E+03    0.29761E-03   -0.20788E-03  2257   0.541E-02    0.115E-01
RMM:   7    -0.873794097568E+03    0.14797E-04   -0.55628E-03  2689   0.687E-02    0.626E-02
RMM:   8    -0.873794135867E+03   -0.38299E-04   -0.62541E-04  1641   0.470E-02
  20 F= -.89472756E+03 E0= -.89472756E+03  d E =-.164997E-01  mag=     2.0000
       N       E                     dE             d eps       ncg     rms          rms(c)
DAV:   1    -0.873795363884E+03   -0.12663E-02   -0.93296E-01  2480   0.110E+00    0.250E-01
RMM:   2    -0.873797826685E+03   -0.24628E-02   -0.30736E-02  2889   0.322E-01    0.200E-01
RMM:   3    -0.873798497128E+03   -0.67044E-03   -0.71777E-03  3494   0.890E-02    0.172E-01
RMM:   4    -0.873798746401E+03   -0.24927E-03   -0.18171E-03  2418   0.478E-02    0.126E-01
RMM:   5    -0.873799259839E+03   -0.51344E-03   -0.21399E-03  2152   0.480E-02    0.576E-02
RMM:   6    -0.873799292512E+03   -0.32673E-04   -0.39551E-04  1516   0.374E-02
  21 F= -.89473217E+03 E0= -.89473217E+03  d E =-.211092E-01  mag=     2.0000
       N       E                     dE             d eps       ncg     rms          rms(c)
DAV:   1    -0.873790947497E+03    0.83123E-02   -0.37202E+00  2368   0.220E+00    0.507E-01
RMM:   2    -0.873801056232E+03   -0.10109E-01   -0.12709E-01  2962   0.646E-01    0.387E-01
RMM:   3    -0.873803533864E+03   -0.24776E-02   -0.27186E-02  3541   0.174E-01    0.328E-01
RMM:   4    -0.873803940036E+03   -0.40617E-03   -0.68973E-03  3288   0.901E-02    0.245E-01
RMM:   5    -0.873805456243E+03   -0.15162E-02   -0.76493E-03  3288   0.802E-02    0.154E-01
RMM:   6    -0.873805295501E+03    0.16074E-03   -0.17676E-03  2206   0.483E-02    0.102E-01
RMM:   7    -0.873805310832E+03   -0.15331E-04   -0.40776E-03  2637   0.631E-02    0.562E-02
RMM:   8    -0.873805380759E+03   -0.69927E-04   -0.62361E-04  1663   0.436E-02
  22 F= -.89473717E+03 E0= -.89473717E+03  d E =-.261078E-01  mag=     2.0000
       N       E                     dE             d eps       ncg     rms          rms(c)
DAV:   1    -0.873802938084E+03    0.23727E-02   -0.30931E+00  2384   0.210E+00    0.428E-01
RMM:   2    -0.873812793889E+03   -0.98558E-02   -0.12731E-01  3026   0.657E-01    0.319E-01
RMM:   3    -0.873815152125E+03   -0.23582E-02   -0.25767E-02  3455   0.181E-01    0.280E-01
RMM:   4    -0.873815353304E+03   -0.20118E-03   -0.66014E-03  3202   0.994E-02    0.210E-01
RMM:   5    -0.873816204276E+03   -0.85097E-03   -0.51475E-03  3254   0.714E-02    0.128E-01
RMM:   6    -0.873816202552E+03    0.17244E-05   -0.14099E-03  2385   0.487E-02    0.786E-02
RMM:   7    -0.873816337087E+03   -0.13454E-03   -0.25203E-03  2671   0.538E-02    0.473E-02
RMM:   8    -0.873816372728E+03   -0.35641E-04   -0.29702E-04  1540   0.379E-02
  23 F= -.89474609E+03 E0= -.89474609E+03  d E =-.892194E-02  mag=     2.0000
       N       E                     dE             d eps       ncg     rms          rms(c)
DAV:   1    -0.873816881359E+03   -0.54427E-03   -0.65115E-02  2960   0.305E-01    0.731E-02
RMM:   2    -0.873817137717E+03   -0.25636E-03   -0.28748E-03  2672   0.101E-01    0.565E-02
RMM:   3    -0.873817212846E+03   -0.75129E-04   -0.59911E-04  1701   0.346E-02
  24 F= -.89474663E+03 E0= -.89474663E+03  d E =-.946509E-02  mag=     2.0000
       N       E                     dE             d eps       ncg     rms          rms(c)
DAV:   1    -0.873817434456E+03   -0.29674E-03   -0.15071E+00  2400   0.152E+00    0.291E-01
RMM:   2    -0.873821263392E+03   -0.38289E-02   -0.50338E-02  2903   0.436E-01    0.235E-01
RMM:   3    -0.873822293557E+03   -0.10302E-02   -0.11640E-02  3192   0.117E-01    0.208E-01
RMM:   4    -0.873822281832E+03    0.11725E-04   -0.18579E-03  2614   0.587E-02    0.173E-01
RMM:   5    -0.873823113647E+03   -0.83182E-03   -0.56611E-03  2790   0.759E-02    0.125E-01
RMM:   6    -0.873823002336E+03    0.11131E-03   -0.73463E-04  1575   0.455E-02    0.101E-01
RMM:   7    -0.873822853121E+03    0.14922E-03   -0.23646E-03  2330   0.546E-02    0.364E-02
RMM:   8    -0.873822908984E+03   -0.55863E-04   -0.35028E-04  1468   0.387E-02
  25 F= -.89475152E+03 E0= -.89475152E+03  d E =-.489006E-02  mag=     2.0000
       N       E                     dE             d eps       ncg     rms          rms(c)
DAV:   1    -0.873823548461E+03   -0.69534E-03   -0.93206E-02  2840   0.377E-01    0.752E-02
RMM:   2    -0.873823830653E+03   -0.28219E-03   -0.32224E-03  2726   0.113E-01    0.617E-02
RMM:   3    -0.873823908913E+03   -0.78260E-04   -0.70412E-04  1721   0.350E-02
  26 F= -.89475232E+03 E0= -.89475232E+03  d E =-.569137E-02  mag=     2.0000
       N       E                     dE             d eps       ncg     rms          rms(c)
DAV:   1    -0.873824246614E+03   -0.41596E-03   -0.36953E-01  2368   0.752E-01    0.159E-01
RMM:   2    -0.873825243545E+03   -0.99693E-03   -0.13165E-02  2881   0.225E-01    0.142E-01
RMM:   3    -0.873825548462E+03   -0.30492E-03   -0.33029E-03  2966   0.620E-02    0.129E-01
RMM:   4    -0.873825599446E+03   -0.50984E-04   -0.65905E-04  1769   0.392E-02
  27 F= -.89475362E+03 E0= -.89475362E+03  d E =-.698493E-02  mag=     2.0000
       N       E                     dE             d eps       ncg     rms          rms(c)
DAV:   1    -0.873823199060E+03    0.23494E-02   -0.14460E+00  2344   0.148E+00    0.312E-01
RMM:   2    -0.873826272927E+03   -0.30739E-02   -0.47894E-02  2900   0.428E-01    0.236E-01
RMM:   3    -0.873827457800E+03   -0.11849E-02   -0.13698E-02  3353   0.120E-01    0.198E-01
RMM:   4    -0.873827547478E+03   -0.89678E-04   -0.23791E-03  2875   0.615E-02    0.168E-01
RMM:   5    -0.873828127148E+03   -0.57967E-03   -0.34479E-03  2848   0.596E-02    0.110E-01
RMM:   6    -0.873828199321E+03   -0.72173E-04   -0.97782E-04  1712   0.397E-02
  28 F= -.89475542E+03 E0= -.89475542E+03  d E =-.879162E-02  mag=     2.0000
       N       E                     dE             d eps       ncg     rms          rms(c)
DAV:   1    -0.873828826146E+03   -0.69900E-03   -0.67454E-01  2624   0.987E-01    0.214E-01
RMM:   2    -0.873830770226E+03   -0.19441E-02   -0.25995E-02  3022   0.290E-01    0.138E-01
RMM:   3    -0.873831283010E+03   -0.51278E-03   -0.55822E-03  3247   0.752E-02    0.123E-01
RMM:   4    -0.873831251850E+03    0.31160E-04   -0.84666E-04  1886   0.412E-02
  29 F= -.89475749E+03 E0= -.89475749E+03  d E =-.206692E-02  mag=     2.0000
       N       E                     dE             d eps       ncg     rms          rms(c)
DAV:   1    -0.873829326177E+03    0.19568E-02   -0.20289E+00  2368   0.171E+00    0.386E-01
RMM:   2    -0.873834038398E+03   -0.47122E-02   -0.67645E-02  2967   0.492E-01    0.272E-01
RMM:   3    -0.873835477079E+03   -0.14387E-02   -0.16657E-02  3449   0.130E-01    0.219E-01
RMM:   4    -0.873835616109E+03   -0.13903E-03   -0.30809E-03  2932   0.670E-02    0.173E-01
RMM:   5    -0.873836405497E+03   -0.78939E-03   -0.41559E-03  2887   0.617E-02    0.924E-02
RMM:   6    -0.873836449507E+03   -0.44010E-04   -0.10450E-03  1754   0.396E-02    0.632E-02
RMM:   7    -0.873836433978E+03    0.15529E-04   -0.96943E-04  1803   0.414E-02
  30 F= -.89476096E+03 E0= -.89476096E+03  d E =-.553407E-02  mag=     2.0000
       N       E                     dE             d eps       ncg     rms          rms(c)
DAV:   1    -0.873812216309E+03    0.24233E-01   -0.81911E+00  2336   0.344E+00    0.686E-01
RMM:   2    -0.873834748982E+03   -0.22533E-01   -0.27932E-01  2993   0.993E-01    0.459E-01
RMM:   3    -0.873839783324E+03   -0.50343E-02   -0.57700E-02  3465   0.254E-01    0.397E-01
RMM:   4    -0.873839618287E+03    0.16504E-03   -0.10680E-02  3251   0.126E-01    0.323E-01
RMM:   5    -0.873841770476E+03   -0.21522E-02   -0.15903E-02  3344   0.109E-01    0.202E-01
RMM:   6    -0.873841803665E+03   -0.33189E-04   -0.32581E-03  2791   0.676E-02    0.133E-01
RMM:   7    -0.873841742054E+03    0.61610E-04   -0.72161E-03  3056   0.751E-02    0.845E-02
RMM:   8    -0.873841763822E+03   -0.21767E-04   -0.77380E-04  1801   0.485E-02
  31 F= -.89476286E+03 E0= -.89476286E+03  d E =-.744031E-02  mag=     2.0000
       N       E                     dE             d eps       ncg     rms          rms(c)
DAV:   1    -0.873830347182E+03    0.11395E-01   -0.29555E+00  2432   0.207E+00    0.437E-01
RMM:   2    -0.873837611541E+03   -0.72644E-02   -0.99177E-02  2974   0.587E-01    0.286E-01
RMM:   3    -0.873839141869E+03   -0.15303E-02   -0.18910E-02  3207   0.150E-01    0.234E-01
RMM:   4    -0.873839013869E+03    0.12800E-03   -0.24399E-03  2400   0.786E-02    0.181E-01
RMM:   5    -0.873840055742E+03   -0.10419E-02   -0.66882E-03  2673   0.782E-02    0.121E-01
RMM:   6    -0.873839832548E+03    0.22319E-03   -0.79395E-04  1562   0.486E-02    0.856E-02
RMM:   7    -0.873839763170E+03    0.69377E-04   -0.22787E-03  2224   0.505E-02    0.334E-02
RMM:   8    -0.873839791866E+03   -0.28695E-04   -0.24810E-04  1413   0.364E-02
  32 F= -.89476295E+03 E0= -.89476295E+03  d E =-.752683E-02  mag=     2.0000
       N       E                     dE             d eps       ncg     rms          rms(c)
DAV:   1    -0.873838902128E+03    0.86104E-03   -0.75706E-01  2376   0.105E+00    0.211E-01
RMM:   2    -0.873840795164E+03   -0.18930E-02   -0.25075E-02  2892   0.298E-01    0.139E-01
RMM:   3    -0.873841176297E+03   -0.38113E-03   -0.46121E-03  2873   0.762E-02    0.118E-01
RMM:   4    -0.873841159493E+03    0.16805E-04   -0.58413E-04  1721   0.444E-02
  33 F= -.89476327E+03 E0= -.89476327E+03  d E =-.785100E-02  mag=     2.0000
       N       E                     dE             d eps       ncg     rms          rms(c)
DAV:   1    -0.873842457736E+03   -0.12814E-02   -0.67944E-01  2352   0.954E-01    0.250E-01
RMM:   2    -0.873843912426E+03   -0.14547E-02   -0.25903E-02  2959   0.294E-01    0.187E-01
RMM:   3    -0.873844503838E+03   -0.59141E-03   -0.70043E-03  3284   0.835E-02    0.155E-01
RMM:   4    -0.873844548136E+03   -0.44298E-04   -0.10924E-03  1985   0.481E-02    0.127E-01
RMM:   5    -0.873845014885E+03   -0.46675E-03   -0.22743E-03  2257   0.536E-02    0.777E-02
RMM:   6    -0.873845046626E+03   -0.31740E-04   -0.66696E-04  1498   0.375E-02
  34 F= -.89476607E+03 E0= -.89476607E+03  d E =-.279338E-02  mag=     2.0000
       N       E                     dE             d eps       ncg     rms          rms(c)
DAV:   1    -0.873825836470E+03    0.19178E-01   -0.62166E+00  2360   0.288E+00    0.665E-01
RMM:   2    -0.873843989581E+03   -0.18153E-01   -0.24032E-01  3025   0.881E-01    0.505E-01
RMM:   3    -0.873848562888E+03   -0.45733E-02   -0.51817E-02  3515   0.235E-01    0.451E-01
RMM:   4    -0.873848280710E+03    0.28218E-03   -0.11304E-02  3237   0.124E-01    0.360E-01
RMM:   5    -0.873850710573E+03   -0.24299E-02   -0.18006E-02  3321   0.111E-01    0.247E-01
RMM:   6    -0.873850522107E+03    0.18847E-03   -0.28766E-03  2724   0.687E-02    0.171E-01
RMM:   7    -0.873850081133E+03    0.44097E-03   -0.93204E-03  3083   0.816E-02    0.759E-02
RMM:   8    -0.873850178403E+03   -0.97270E-04   -0.10704E-03  1904   0.553E-02    0.769E-02
RMM:   9    -0.873850201786E+03   -0.23383E-04   -0.46438E-04  1601   0.312E-02
  35 F= -.89476794E+03 E0= -.89476794E+03  d E =-.466965E-02  mag=     2.0000
       N       E                     dE             d eps       ncg     rms          rms(c)
DAV:   1    -0.873845039336E+03    0.51391E-02   -0.11811E+00  2632   0.125E+00    0.312E-01
RMM:   2    -0.873848251239E+03   -0.32119E-02   -0.47320E-02  3013   0.378E-01    0.224E-01
RMM:   3    -0.873848998325E+03   -0.74709E-03   -0.89469E-03  3119   0.101E-01    0.197E-01
RMM:   4    -0.873848868908E+03    0.12942E-03   -0.13846E-03  2042   0.550E-02    0.158E-01
RMM:   5    -0.873849724920E+03   -0.85601E-03   -0.63417E-03  2524   0.732E-02    0.130E-01
RMM:   6    -0.873849468952E+03    0.25597E-03   -0.67719E-04  1477   0.464E-02    0.991E-02
RMM:   7    -0.873849335147E+03    0.13380E-03   -0.28949E-03  2227   0.485E-02    0.299E-02
RMM:   8    -0.873849359878E+03   -0.24731E-04   -0.23912E-04  1379   0.367E-02
  36 F= -.89476853E+03 E0= -.89476853E+03  d E =-.525882E-02  mag=     2.0000
       N       E                     dE             d eps       ncg     rms          rms(c)
DAV:   1    -0.873849479563E+03   -0.14442E-03   -0.15188E-01  2544   0.450E-01    0.106E-01
RMM:   2    -0.873849901725E+03   -0.42216E-03   -0.58164E-03  2837   0.137E-01    0.791E-02
RMM:   3    -0.873849983808E+03   -0.82083E-04   -0.89727E-04  1732   0.381E-02
  37 F= -.89476864E+03 E0= -.89476864E+03  d E =-.536813E-02  mag=     2.0000
       N       E                     dE             d eps       ncg     rms          rms(c)
DAV:   1    -0.873849599169E+03    0.30256E-03   -0.39750E-02  2704   0.234E-01    0.593E-02
RMM:   2    -0.873849775289E+03   -0.17612E-03   -0.16967E-03  2232   0.701E-02    0.248E-02
RMM:   3    -0.873849840082E+03   -0.64794E-04   -0.39424E-04  1380   0.302E-02
  38 F= -.89476876E+03 E0= -.89476876E+03  d E =-.548931E-02  mag=     2.0000
       N       E                     dE             d eps       ncg     rms          rms(c)
DAV:   1    -0.873849988480E+03   -0.21319E-03   -0.95885E-03  2832   0.117E-01    0.374E-02
RMM:   2    -0.873850018036E+03   -0.29556E-04   -0.39403E-04  1411   0.339E-02
  39 F= -.89476881E+03 E0= -.89476881E+03  d E =-.553480E-02  mag=     2.0000
       N       E                     dE             d eps       ncg     rms          rms(c)
DAV:   1    -0.873849992727E+03   -0.42467E-05   -0.15055E-03  2480   0.505E-02    0.207E-02
RMM:   2    -0.873850026931E+03   -0.34204E-04   -0.90756E-05  1265   0.205E-02
  40 F= -.89476887E+03 E0= -.89476887E+03  d E =-.559619E-02  mag=     2.0000
       N       E                     dE             d eps       ncg     rms          rms(c)
DAV:   1    -0.873850075143E+03   -0.82416E-04   -0.31813E-04  1680   0.218E-02    0.181E-02
RMM:   2    -0.873850102863E+03   -0.27720E-04   -0.55879E-05  1139   0.128E-02
  41 F= -.89476892E+03 E0= -.89476892E+03  d E =-.564870E-02  mag=     2.0000
       N       E                     dE             d eps       ncg     rms          rms(c)
DAV:   1    -0.873849106782E+03    0.96836E-03   -0.99247E-01  2352   0.119E+00    0.281E-01
RMM:   2    -0.873852047604E+03   -0.29408E-02   -0.38706E-02  2955   0.364E-01    0.211E-01
RMM:   3    -0.873852779081E+03   -0.73148E-03   -0.82008E-03  3337   0.997E-02    0.182E-01
RMM:   4    -0.873852824349E+03   -0.45268E-04   -0.16128E-03  2299   0.497E-02    0.145E-01
RMM:   5    -0.873853506274E+03   -0.68193E-03   -0.39299E-03  2510   0.614E-02    0.982E-02
RMM:   6    -0.873853376302E+03    0.12997E-03   -0.64812E-04  1538   0.417E-02    0.681E-02
RMM:   7    -0.873853360995E+03    0.15307E-04   -0.15515E-03  1923   0.417E-02    0.305E-02
RMM:   8    -0.873853401936E+03   -0.40941E-04   -0.27319E-04  1430   0.363E-02
  42 F= -.89477108E+03 E0= -.89477108E+03  d E =-.215706E-02  mag=     2.0000
       N       E                     dE             d eps       ncg     rms          rms(c)
DAV:   1    -0.873853620017E+03   -0.25902E-03   -0.98916E-03  3144   0.119E-01    0.378E-02
RMM:   2    -0.873853658855E+03   -0.38838E-04   -0.35296E-04  1468   0.469E-02
  43 F= -.89477123E+03 E0= -.89477123E+03  d E =-.230493E-02  mag=     2.0000
       N       E                     dE             d eps       ncg     rms          rms(c)
DAV:   1    -0.873853961934E+03   -0.34192E-03   -0.36999E-02  2520   0.230E-01    0.686E-02
RMM:   2    -0.873854074988E+03   -0.11305E-03   -0.15304E-03  2262   0.772E-02    0.591E-02
RMM:   3    -0.873854132734E+03   -0.57747E-04   -0.46445E-04  1541   0.317E-02
  44 F= -.89477148E+03 E0= -.89477148E+03  d E =-.256086E-02  mag=     2.0000
       N       E                     dE             d eps       ncg     rms          rms(c)
DAV:   1    -0.873854477923E+03   -0.40293E-03   -0.15140E-01  2368   0.501E-01    0.102E-01
RMM:   2    -0.873854953360E+03   -0.47544E-03   -0.58358E-03  2749   0.162E-01    0.944E-02
RMM:   3    -0.873855060792E+03   -0.10743E-03   -0.10597E-03  1966   0.464E-02    0.859E-02
RMM:   4    -0.873855133984E+03   -0.73191E-04   -0.30803E-04  1477   0.448E-02
  45 F= -.89477222E+03 E0= -.89477222E+03  d E =-.732076E-03  mag=     2.0000
       N       E                     dE             d eps       ncg     rms          rms(c)
DAV:   1    -0.873855410286E+03   -0.34949E-03   -0.72684E-03  3192   0.112E-01    0.446E-02
RMM:   2    -0.873855428614E+03   -0.18327E-04   -0.32605E-04  1501   0.462E-02
  46 F= -.89477246E+03 E0= -.89477246E+03  d E =-.970984E-03  mag=     2.0000
       N       E                     dE             d eps       ncg     rms          rms(c)
DAV:   1    -0.873855539109E+03   -0.12882E-03   -0.27063E-02  2504   0.211E-01    0.599E-02
RMM:   2    -0.873855647208E+03   -0.10810E-03   -0.12279E-03  2273   0.777E-02    0.602E-02
RMM:   3    -0.873855690118E+03   -0.42910E-04   -0.40144E-04  1589   0.322E-02
  47 F= -.89477261E+03 E0= -.89477261E+03  d E =-.112111E-02  mag=     2.0000
       N       E                     dE             d eps       ncg     rms          rms(c)
DAV:   1    -0.873856220829E+03   -0.57362E-03   -0.63254E-02  2560   0.322E-01    0.832E-02
RMM:   2    -0.873856400382E+03   -0.17955E-03   -0.21399E-03  2492   0.995E-02    0.783E-02
RMM:   3    -0.873856455285E+03   -0.54904E-04   -0.43666E-04  1607   0.312E-02
  48 F= -.89477302E+03 E0= -.89477302E+03  d E =-.414649E-03  mag=     2.0000
