       N       E                     dE             d eps       ncg     rms          rms(c)
DAV:   1     0.153037900599E+05    0.15304E+05   -0.32742E+05  2280   0.147E+03
DAV:   2     0.571124282007E+04   -0.95925E+04   -0.83977E+04  2400   0.392E+02
DAV:   3     0.635506550709E+03   -0.50757E+04   -0.48077E+04  2904   0.264E+02
DAV:   4    -0.886839887292E+03   -0.15223E+04   -0.13925E+04  3152   0.140E+02
DAV:   5    -0.104759927311E+04   -0.16076E+03   -0.15958E+03  3784   0.596E+01    0.154E+02
RMM:   6    -0.858145163791E+03    0.18945E+03   -0.56402E+02  3128   0.302E+01    0.984E+01
RMM:   7    -0.988884314706E+03   -0.13074E+03   -0.11777E+03  3557   0.360E+01    0.184E+02
RMM:   8    -0.135550548904E+04   -0.36662E+03   -0.82407E+02  3035   0.603E+01    0.305E+02
RMM:   9    -0.171832568639E+04   -0.36282E+03   -0.11070E+03  3545   0.326E+01    0.399E+02
RMM:  10    -0.184335178742E+04   -0.12503E+03   -0.65324E+02  3282   0.305E+01    0.403E+02
RMM:  11    -0.145304630533E+04    0.39031E+03   -0.16814E+02  3045   0.151E+01    0.373E+02
RMM:  12    -0.106404744381E+04    0.38900E+03   -0.12686E+02  3143   0.131E+01    0.298E+02
RMM:  13    -0.874319476483E+03    0.18973E+03   -0.50357E+01  3154   0.717E+00    0.142E+02
RMM:  14    -0.856517545614E+03    0.17802E+02   -0.42945E+01  3087   0.703E+00    0.748E+01
RMM:  15    -0.937152189208E+03   -0.80635E+02   -0.49356E+01  3133   0.822E+00    0.170E+02
RMM:  16    -0.927254562466E+03    0.98976E+01   -0.42589E+01  3039   0.786E+00    0.171E+02
RMM:  17    -0.862372746307E+03    0.64882E+02   -0.53407E+01  3104   0.903E+00    0.903E+01
RMM:  18    -0.849841801996E+03    0.12531E+02   -0.15959E+01  3168   0.455E+00    0.622E+01
RMM:  19    -0.840527840873E+03    0.93140E+01   -0.16978E+01  3134   0.504E+00    0.823E+01
RMM:  20    -0.839779370131E+03    0.74847E+00   -0.73622E+00  3073   0.382E+00    0.525E+01
RMM:  21    -0.839297024471E+03    0.48235E+00   -0.50922E+00  3171   0.273E+00    0.497E+01
RMM:  22    -0.839386951779E+03   -0.89927E-01   -0.25347E+00  3098   0.233E+00    0.491E+01
RMM:  23    -0.840802849933E+03   -0.14159E+01   -0.10135E+00  3186   0.130E+00    0.472E+01
RMM:  24    -0.841043048686E+03   -0.24020E+00   -0.12060E+00  3127   0.146E+00    0.465E+01
RMM:  25    -0.844043797708E+03   -0.30007E+01   -0.29733E+00  3116   0.229E+00    0.437E+01
RMM:  26    -0.846790534696E+03   -0.27467E+01   -0.53848E+00  3131   0.277E+00    0.498E+01
RMM:  27    -0.847211891496E+03   -0.42136E+00   -0.90368E-01  3077   0.137E+00    0.516E+01
RMM:  28    -0.847765065848E+03   -0.55317E+00   -0.28124E-01  3275   0.591E-01    0.532E+01
RMM:  29    -0.847946894746E+03   -0.18183E+00   -0.97942E-02  3507   0.354E-01    0.538E+01
RMM:  30    -0.847933303753E+03    0.13591E-01   -0.19148E-01  3133   0.507E-01    0.512E+01
RMM:  31    -0.847885700618E+03    0.47603E-01   -0.42661E-02  3069   0.329E-01    0.512E+01
RMM:  32    -0.847821621841E+03    0.64079E-01   -0.20946E-02  3606   0.158E-01    0.512E+01
RMM:  33    -0.847765183788E+03    0.56438E-01   -0.20041E-02  3242   0.159E-01    0.512E+01
RMM:  34    -0.847876647355E+03   -0.11146E+00   -0.24334E-02  3119   0.186E-01    0.513E+01
RMM:  35    -0.848484004492E+03   -0.60736E+00   -0.16505E-01  3094   0.520E-01    0.535E+01
RMM:  36    -0.848306370823E+03    0.17763E+00   -0.25049E-01  3116   0.656E-01    0.522E+01
RMM:  37    -0.847593869697E+03    0.71250E+00   -0.27796E-01  3109   0.724E-01    0.519E+01
RMM:  38    -0.847112453881E+03    0.48142E+00   -0.23598E-01  3122   0.629E-01    0.520E+01
RMM:  39    -0.847004952925E+03    0.10750E+00   -0.54544E-02  3037   0.349E-01    0.517E+01
RMM:  40    -0.846980975892E+03    0.23977E-01   -0.45810E-02  3091   0.265E-01    0.519E+01
RMM:  41    -0.846949960095E+03    0.31016E-01   -0.15447E-02  3036   0.175E-01    0.521E+01
RMM:  42    -0.846917003398E+03    0.32957E-01   -0.14895E-02  2998   0.152E-01    0.522E+01
RMM:  43    -0.846913153236E+03    0.38502E-02   -0.12011E-01  3048   0.445E-01    0.521E+01
RMM:  44    -0.846064346715E+03    0.84881E+00   -0.20660E-01  3060   0.656E-01    0.504E+01
RMM:  45    -0.845572904722E+03    0.49144E+00   -0.19779E-01  3100   0.633E-01    0.469E+01
RMM:  46    -0.846569763068E+03   -0.99686E+00   -0.24579E-01  3083   0.715E-01    0.465E+01
RMM:  47    -0.847652528688E+03   -0.10828E+01   -0.65830E-01  3075   0.118E+00    0.454E+01
RMM:  48    -0.847584234714E+03    0.68294E-01   -0.66005E-01  3119   0.112E+00    0.486E+01
RMM:  49    -0.847976730583E+03   -0.39250E+00   -0.47454E-01  3109   0.968E-01    0.491E+01
RMM:  50    -0.848035334901E+03   -0.58604E-01   -0.10682E-01  3016   0.422E-01    0.496E+01
RMM:  51    -0.107587345416E+04   -0.22784E+03   -0.44952E+01  3017   0.801E+00    0.277E+02
RMM:  52    -0.856957535516E+03    0.21892E+03   -0.14239E+01  2875   0.558E+00    0.819E+01
RMM:  53    -0.846807519300E+03    0.10150E+02   -0.86742E+00  3136   0.326E+00    0.501E+01
RMM:  54    -0.846290234771E+03    0.51728E+00   -0.66583E+00  3105   0.315E+00    0.673E+01
RMM:  55    -0.845832345449E+03    0.45789E+00   -0.25043E+00  3107   0.222E+00    0.450E+01
RMM:  56    -0.858369218620E+03   -0.12537E+02   -0.33242E+01  3104   0.663E+00    0.113E+02
RMM:  57    -0.841911844423E+03    0.16457E+02   -0.86648E+00  3033   0.475E+00    0.535E+01
RMM:  58    -0.851571829266E+03   -0.96600E+01   -0.62834E+00  3104   0.356E+00    0.718E+01
RMM:  59    -0.853473728475E+03   -0.19019E+01   -0.43918E+00  3128   0.303E+00    0.847E+01
RMM:  60    -0.853585814079E+03   -0.11209E+00   -0.12367E+00  3139   0.127E+00    0.853E+01
RMM:  61    -0.825230549365E+03    0.28355E+02   -0.16594E+01  3104   0.637E+00    0.741E+01
RMM:  62    -0.849750255919E+03   -0.24520E+02   -0.80157E+00  3050   0.501E+00    0.126E+02
RMM:  63    -0.852277405222E+03   -0.25271E+01   -0.25215E+00  3205   0.226E+00    0.144E+02
RMM:  64    -0.851836489645E+03    0.44092E+00   -0.92784E-01  3243   0.147E+00    0.128E+02
RMM:  65    -0.851226346323E+03    0.61014E+00   -0.42130E-01  3240   0.984E-01    0.122E+02
RMM:  66    -0.841962636987E+03    0.92637E+01   -0.44563E+00  2982   0.366E+00    0.111E+02
RMM:  67    -0.841282100212E+03    0.68054E+00   -0.11805E+00  3033   0.160E+00    0.116E+02
RMM:  68    -0.840812417606E+03    0.46968E+00   -0.41607E-01  3083   0.108E+00    0.117E+02
RMM:  69    -0.840646492278E+03    0.16593E+00   -0.13985E-01  3076   0.674E-01    0.114E+02
RMM:  70    -0.841452165930E+03   -0.80567E+00   -0.23391E-01  3126   0.729E-01    0.111E+02
RMM:  71    -0.827394032210E+03    0.14058E+02   -0.35343E+00  3089   0.319E+00    0.102E+02
RMM:  72    -0.830935534962E+03   -0.35415E+01   -0.10635E+00  3129   0.150E+00    0.106E+02
RMM:  73    -0.840273513826E+03   -0.93380E+01   -0.54232E-01  3043   0.135E+00    0.116E+02
RMM:  74    -0.844050394364E+03   -0.37769E+01   -0.74770E-01  3146   0.129E+00    0.116E+02
RMM:  75    -0.847945962198E+03   -0.38956E+01   -0.54700E-01  2965   0.146E+00    0.116E+02
RMM:  76    -0.852546756158E+03   -0.46008E+01   -0.10826E+01  2941   0.589E+00    0.115E+02
RMM:  77    -0.858795951850E+03   -0.62492E+01   -0.42005E+00  3046   0.308E+00    0.125E+02
RMM:  78    -0.857449077208E+03    0.13469E+01   -0.12865E+00  3055   0.180E+00    0.123E+02
RMM:  79    -0.859325246641E+03   -0.18762E+01   -0.71383E-01  3176   0.103E+00    0.124E+02
RMM:  80    -0.859044033333E+03    0.28121E+00   -0.37096E-01  3065   0.906E-01    0.122E+02
RMM:  81    -0.866333978951E+03   -0.72899E+01   -0.18015E+00  2926   0.202E+00    0.124E+02
RMM:  82    -0.872565043274E+03   -0.62311E+01   -0.23857E+00  3095   0.197E+00    0.132E+02
RMM:  83    -0.873450326510E+03   -0.88528E+00   -0.55261E-01  3057   0.110E+00    0.133E+02
RMM:  84    -0.873010999699E+03    0.43933E+00   -0.16301E-01  3219   0.521E-01    0.133E+02
RMM:  85    -0.871521915941E+03    0.14891E+01   -0.10758E-01  3038   0.447E-01    0.132E+02
RMM:  86    -0.872932829438E+03   -0.14109E+01   -0.69144E+00  2953   0.406E+00    0.120E+02
RMM:  87    -0.879181167395E+03   -0.62483E+01   -0.32200E+00  3059   0.227E+00    0.120E+02
RMM:  88    -0.884434786427E+03   -0.52536E+01   -0.16123E+00  3053   0.163E+00    0.120E+02
RMM:  89    -0.885631144499E+03   -0.11964E+01   -0.58021E-01  3092   0.989E-01    0.122E+02
RMM:  90    -0.885334661868E+03    0.29648E+00   -0.12703E-01  3104   0.485E-01    0.122E+02
RMM:  91    -0.890196225442E+03   -0.48616E+01   -0.73392E-01  2981   0.121E+00    0.123E+02
RMM:  92    -0.886076195256E+03    0.41200E+01   -0.58426E-01  3106   0.919E-01    0.122E+02
RMM:  93    -0.887524471318E+03   -0.14483E+01   -0.91022E-02  3071   0.411E-01    0.122E+02
RMM:  94    -0.889124479023E+03   -0.16000E+01   -0.15231E-01  3066   0.453E-01    0.123E+02
RMM:  95    -0.889467900781E+03   -0.34342E+00   -0.15695E-01  2947   0.547E-01    0.125E+02
RMM:  96    -0.848190782248E+03    0.41277E+02   -0.74870E+00  3081   0.358E+00    0.807E+01
RMM:  97    -0.851905678982E+03   -0.37149E+01   -0.28452E+00  3085   0.254E+00    0.772E+01
RMM:  98    -0.854508205429E+03   -0.26025E+01   -0.16535E+00  3101   0.171E+00    0.815E+01
RMM:  99    -0.856495142543E+03   -0.19869E+01   -0.11283E+00  3122   0.144E+00    0.856E+01
RMM: 100    -0.857187932640E+03   -0.69279E+00   -0.30020E-01  3090   0.824E-01
   1 F= -.87726949E+03 E0= -.87723497E+03  d E =-.877269E+03  mag=     7.5470
       N       E                     dE             d eps       ncg     rms          rms(c)
DAV:   1    -0.865089307244E+03   -0.85942E+01   -0.70963E+01  3512   0.165E+01    0.102E+02
RMM:   2    -0.676280330066E+04   -0.58977E+04   -0.82863E+03  3778   0.212E+02    0.586E+02
RMM:   3    -0.372865702419E+04    0.30341E+04   -0.24022E+03  3627   0.112E+02    0.421E+02
RMM:   4    -0.174650289781E+04    0.19822E+04   -0.78712E+02  3645   0.620E+01    0.279E+02
RMM:   5    -0.967326564642E+03    0.77918E+03   -0.73217E+02  3401   0.550E+01    0.107E+02
RMM:   6    -0.892760840002E+03    0.74566E+02   -0.60848E+02  3151   0.424E+01    0.547E+01
RMM:   7    -0.886566156992E+03    0.61947E+01   -0.30518E+02  3393   0.210E+01    0.433E+01
RMM:   8    -0.867007083292E+03    0.19559E+02   -0.50894E+01  3098   0.120E+01    0.346E+01
RMM:   9    -0.856420974279E+03    0.10586E+02   -0.53895E+01  3031   0.972E+00    0.262E+01
RMM:  10    -0.850051156695E+03    0.63698E+01   -0.35007E+01  3039   0.850E+00    0.234E+01
RMM:  11    -0.847642634299E+03    0.24085E+01   -0.11317E+01  2960   0.438E+00    0.184E+01
RMM:  12    -0.844983327680E+03    0.26593E+01   -0.74967E+00  3019   0.382E+00    0.134E+01
RMM:  13    -0.845545857602E+03   -0.56253E+00   -0.11746E+01  3070   0.418E+00    0.176E+01
RMM:  14    -0.844295150647E+03    0.12507E+01   -0.23937E+00  3143   0.190E+00    0.116E+01
RMM:  15    -0.844081607881E+03    0.21354E+00   -0.18442E+00  3141   0.164E+00    0.970E+00
RMM:  16    -0.844199656139E+03   -0.11805E+00   -0.21705E+00  2840   0.238E+00    0.113E+01
RMM:  17    -0.844444227488E+03   -0.24457E+00   -0.83079E-01  2861   0.158E+00    0.101E+01
RMM:  18    -0.844213550416E+03    0.23068E+00   -0.18563E+00  2716   0.242E+00    0.695E+00
RMM:  19    -0.844329524709E+03   -0.11597E+00   -0.43769E-01  3106   0.826E-01    0.744E+00
RMM:  20    -0.844240490849E+03    0.89034E-01   -0.48106E-01  2965   0.102E+00    0.628E+00
RMM:  21    -0.844212615299E+03    0.27876E-01   -0.25264E-01  3111   0.629E-01    0.582E+00
RMM:  22    -0.844190606594E+03    0.22009E-01   -0.18172E-01  3160   0.475E-01    0.563E+00
RMM:  23    -0.844192906500E+03   -0.22999E-02   -0.41953E-01  3141   0.693E-01    0.533E+00
RMM:  24    -0.844210488164E+03   -0.17582E-01   -0.19908E-01  3130   0.495E-01    0.511E+00
RMM:  25    -0.844211878066E+03   -0.13899E-02   -0.38484E-02  3309   0.203E-01    0.514E+00
RMM:  26    -0.844236410678E+03   -0.24533E-01   -0.15711E-01  3086   0.408E-01    0.506E+00
RMM:  27    -0.844278789075E+03   -0.42378E-01   -0.14173E-01  3140   0.380E-01    0.501E+00
RMM:  28    -0.844389935582E+03   -0.11115E+00   -0.15850E-01  3124   0.441E-01    0.740E+00
RMM:  29    -0.844371518511E+03    0.18417E-01   -0.45677E-02  3126   0.314E-01    0.749E+00
RMM:  30    -0.844414343283E+03   -0.42825E-01   -0.23325E-02  3266   0.158E-01    0.878E+00
RMM:  31    -0.844463395312E+03   -0.49052E-01   -0.14798E-02  3109   0.146E-01    0.885E+00
RMM:  32    -0.844460850062E+03    0.25453E-02   -0.54470E-03  2724   0.104E-01    0.887E+00
RMM:  33    -0.844548360464E+03   -0.87510E-01   -0.14160E-02  3028   0.134E-01    0.867E+00
RMM:  34    -0.844587650011E+03   -0.39290E-01   -0.75753E-03  2878   0.119E-01    0.860E+00
RMM:  35    -0.844601620040E+03   -0.13970E-01   -0.38454E-03  2811   0.770E-02    0.857E+00
RMM:  36    -0.844633667791E+03   -0.32048E-01   -0.32698E-03  2654   0.768E-02    0.857E+00
RMM:  37    -0.844638700408E+03   -0.50326E-02   -0.11762E-03  2283   0.561E-02    0.857E+00
RMM:  38    -0.844704002575E+03   -0.65302E-01   -0.63319E-03  2911   0.982E-02    0.857E+00
RMM:  39    -0.844738651643E+03   -0.34649E-01   -0.42802E-03  2669   0.901E-02    0.864E+00
RMM:  40    -0.844741865811E+03   -0.32142E-02   -0.15370E-03  2408   0.648E-02    0.863E+00
RMM:  41    -0.844742532749E+03   -0.66694E-03   -0.37112E-04  1632   0.447E-02    0.863E+00
RMM:  42    -0.844745297236E+03   -0.27645E-02   -0.20882E-04  1483   0.343E-02    0.863E+00
RMM:  43    -0.844755080272E+03   -0.97830E-02   -0.37477E-04  1719   0.392E-02    0.866E+00
RMM:  44    -0.844755830445E+03   -0.75017E-03   -0.24657E-04  1532   0.379E-02    0.869E+00
RMM:  45    -0.844759390137E+03   -0.35597E-02   -0.12234E-03  2045   0.554E-02    0.882E+00
RMM:  46    -0.844810982531E+03   -0.51592E-01   -0.38717E-03  2598   0.840E-02    0.945E+00
RMM:  47    -0.844193312653E+03    0.61767E+00   -0.54996E-01  3053   0.950E-01    0.463E+00
RMM:  48    -0.844210946983E+03   -0.17634E-01   -0.32892E-01  3124   0.571E-01    0.512E+00
RMM:  49    -0.844180501388E+03    0.30446E-01   -0.60533E-01  3116   0.822E-01    0.451E+00
RMM:  50    -0.844241235567E+03   -0.60734E-01   -0.69513E-01  3130   0.847E-01    0.429E+00
RMM:  51    -0.844310545985E+03   -0.69310E-01   -0.35405E-01  3150   0.653E-01    0.405E+00
RMM:  52    -0.844442050159E+03   -0.13150E+00   -0.41415E-01  3148   0.602E-01    0.409E+00
RMM:  53    -0.844610105621E+03   -0.16806E+00   -0.50421E-01  3159   0.627E-01    0.449E+00
RMM:  54    -0.844673174066E+03   -0.63068E-01   -0.19649E-01  3211   0.364E-01    0.468E+00
RMM:  55    -0.844659746259E+03    0.13428E-01   -0.72707E-02  3000   0.244E-01    0.458E+00
RMM:  56    -0.844643998148E+03    0.15748E-01   -0.93703E-02  2953   0.146E-01    0.451E+00
RMM:  57    -0.844710425076E+03   -0.66427E-01   -0.10215E-01  3000   0.277E-01    0.440E+00
RMM:  58    -0.844662275206E+03    0.48150E-01   -0.23244E-01  2903   0.241E-01    0.422E+00
RMM:  59    -0.844600595908E+03    0.61679E-01   -0.15255E-01  3034   0.266E-01    0.410E+00
RMM:  60    -0.844632998399E+03   -0.32402E-01   -0.21335E-01  2667   0.173E-01    0.414E+00
RMM:  61    -0.844649584954E+03   -0.16587E-01   -0.19140E-02  2770   0.124E-01    0.417E+00
RMM:  62    -0.844772147630E+03   -0.12256E+00   -0.61996E-01  2970   0.727E-01    0.457E+00
RMM:  63    -0.844846900665E+03   -0.74753E-01   -0.21324E-01  3119   0.355E-01    0.479E+00
RMM:  64    -0.844911535601E+03   -0.64635E-01   -0.14018E-01  2988   0.324E-01    0.495E+00
RMM:  65    -0.844899203111E+03    0.12332E-01   -0.20264E-02  2592   0.138E-01    0.496E+00
RMM:  66    -0.844891682188E+03    0.75209E-02   -0.14299E-02  2346   0.748E-02    0.497E+00
RMM:  67    -0.844543210917E+03    0.34847E+00   -0.10229E+00  3035   0.982E-01    0.415E+00
RMM:  68    -0.844534041140E+03    0.91698E-02   -0.56932E-01  3002   0.391E-01    0.389E+00
RMM:  69    -0.844471930681E+03    0.62110E-01   -0.76794E-02  2830   0.304E-01    0.368E+00
RMM:  70    -0.844423499917E+03    0.48431E-01   -0.15030E-01  2966   0.210E-01    0.357E+00
RMM:  71    -0.844389246954E+03    0.34253E-01   -0.66060E-02  2770   0.161E-01    0.349E+00
RMM:  72    -0.844240109373E+03    0.14914E+00   -0.13761E-01  2948   0.379E-01    0.317E+00
RMM:  73    -0.844267684208E+03   -0.27575E-01   -0.18224E-02  2471   0.135E-01    0.322E+00
RMM:  74    -0.844270622075E+03   -0.29379E-02   -0.87658E-03  2450   0.636E-02    0.322E+00
RMM:  75    -0.844245606653E+03    0.25015E-01   -0.38879E-03  2364   0.764E-02    0.319E+00
RMM:  76    -0.844218795428E+03    0.26811E-01   -0.11317E-02  2736   0.894E-02    0.314E+00
RMM:  77    -0.844173009001E+03    0.45786E-01   -0.59946E-02  3024   0.245E-01    0.296E+00
RMM:  78    -0.844197949588E+03   -0.24941E-01   -0.55986E-03  2100   0.118E-01    0.297E+00
RMM:  79    -0.844200524694E+03   -0.25751E-02   -0.13863E-02  2950   0.128E-01    0.297E+00
RMM:  80    -0.844229933330E+03   -0.29409E-01   -0.14865E-02  2983   0.125E-01    0.303E+00
RMM:  81    -0.844231297939E+03   -0.13646E-02   -0.28267E-03  2325   0.653E-02    0.303E+00
RMM:  82    -0.844372968022E+03   -0.14167E+00   -0.77555E-02  2928   0.282E-01    0.306E+00
RMM:  83    -0.844368344944E+03    0.46231E-02   -0.42866E-02  2497   0.108E-01    0.302E+00
RMM:  84    -0.844319916340E+03    0.48429E-01   -0.21485E-02  2895   0.149E-01    0.293E+00
RMM:  85    -0.844298451732E+03    0.21465E-01   -0.37652E-02  2857   0.119E-01    0.289E+00
RMM:  86    -0.844292723123E+03    0.57286E-02   -0.42875E-02  2957   0.137E-01    0.289E+00
RMM:  87    -0.844357604768E+03   -0.64882E-01   -0.10022E-01  2940   0.271E-01    0.283E+00
RMM:  88    -0.844360798694E+03   -0.31939E-02   -0.28918E-02  2751   0.132E-01    0.272E+00
RMM:  89    -0.844350176614E+03    0.10622E-01   -0.20197E-02  2920   0.138E-01    0.262E+00
RMM:  90    -0.844342104862E+03    0.80718E-02   -0.75646E-02  2979   0.213E-01    0.244E+00
RMM:  91    -0.844322147669E+03    0.19957E-01   -0.61772E-02  3015   0.210E-01    0.225E+00
RMM:  92    -0.844134832016E+03    0.18732E+00   -0.22363E+00  2980   0.154E+00    0.125E+00
RMM:  93    -0.844222377825E+03   -0.87546E-01   -0.12521E+00  2827   0.616E-01    0.126E+00
RMM:  94    -0.844222220959E+03    0.15687E-03   -0.17358E-01  2928   0.340E-01    0.114E+00
RMM:  95    -0.844223878129E+03   -0.16572E-02   -0.32842E-01  3072   0.234E-01    0.118E+00
RMM:  96    -0.844228319661E+03   -0.44415E-02   -0.14949E-02  2924   0.113E-01    0.119E+00
RMM:  97    -0.844225388941E+03    0.29307E-02   -0.18642E-01  2769   0.234E-01    0.113E+00
RMM:  98    -0.844244768686E+03   -0.19380E-01   -0.38166E-01  2806   0.194E-01    0.939E-01
RMM:  99    -0.844248727927E+03   -0.39592E-02   -0.36846E-02  2937   0.139E-01    0.821E-01
RMM: 100    -0.844257181272E+03   -0.84533E-02   -0.66543E-02  2673   0.124E-01
   2 F= -.86434190E+03 E0= -.86434182E+03  d E =0.129276E+02  mag=     1.9956
       N       E                     dE             d eps       ncg     rms          rms(c)
DAV:   1    -0.844264901278E+03   -0.16173E-01   -0.19287E-01  2720   0.583E-01    0.644E-01
RMM:   2    -0.844273849340E+03   -0.89481E-02   -0.41937E-02  2993   0.318E-01    0.507E-01
RMM:   3    -0.844280636043E+03   -0.67867E-02   -0.36833E-02  3080   0.124E-01    0.428E-01
RMM:   4    -0.844287284787E+03   -0.66487E-02   -0.24663E-02  2692   0.111E-01    0.330E-01
RMM:   5    -0.844300234832E+03   -0.12950E-01   -0.99741E-02  2793   0.130E-01    0.283E-01
RMM:   6    -0.844303965503E+03   -0.37307E-02   -0.14235E-02  1962   0.651E-02    0.273E-01
RMM:   7    -0.844307725297E+03   -0.37598E-02   -0.12005E-02  1926   0.584E-02    0.272E-01
RMM:   8    -0.844311222358E+03   -0.34971E-02   -0.82392E-03  1751   0.547E-02    0.268E-01
RMM:   9    -0.844318797726E+03   -0.75754E-02   -0.25096E-02  2108   0.854E-02    0.227E-01
RMM:  10    -0.844333124513E+03   -0.14327E-01   -0.11270E-01  2532   0.129E-01    0.228E-01
RMM:  11    -0.844344053790E+03   -0.10929E-01   -0.10675E-01  2546   0.174E-01    0.125E-01
RMM:  12    -0.844346937389E+03   -0.28836E-02   -0.27523E-02  1837   0.605E-02    0.196E-01
RMM:  13    -0.844353471734E+03   -0.65343E-02   -0.37922E-02  2075   0.111E-01    0.102E-01
RMM:  14    -0.844358898485E+03   -0.54268E-02   -0.50621E-02  2163   0.734E-02    0.160E-01
RMM:  15    -0.844358841071E+03    0.57414E-04   -0.22081E-03  1565   0.414E-02    0.156E-01
RMM:  16    -0.844357114006E+03    0.17271E-02   -0.12148E-03  1466   0.407E-02    0.181E-01
RMM:  17    -0.844362313229E+03   -0.51992E-02   -0.19553E-02  1895   0.920E-02    0.917E-02
RMM:  18    -0.844367618641E+03   -0.53054E-02   -0.65148E-02  2398   0.103E-01    0.125E-01
RMM:  19    -0.844369670490E+03   -0.20518E-02   -0.20296E-02  2210   0.974E-02    0.804E-02
RMM:  20    -0.844371342076E+03   -0.16716E-02   -0.14761E-02  1725   0.433E-02    0.105E-01
RMM:  21    -0.844371819759E+03   -0.47768E-03   -0.15381E-03  1545   0.432E-02    0.886E-02
RMM:  22    -0.844372799156E+03   -0.97940E-03   -0.61501E-03  1678   0.451E-02    0.894E-02
RMM:  23    -0.844372962840E+03   -0.16368E-03   -0.55904E-04  1462   0.331E-02    0.911E-02
RMM:  24    -0.844372923578E+03    0.39261E-04   -0.16353E-04  1409   0.250E-02
   3 F= -.86445745E+03 E0= -.86445745E+03  d E =0.128120E+02  mag=     2.0000
       N       E                     dE             d eps       ncg     rms          rms(c)
DAV:   1    -0.844374635971E+03   -0.16731E-02   -0.84024E-02  2616   0.392E-01    0.153E-01
RMM:   2    -0.844375684510E+03   -0.10485E-02   -0.66232E-03  2728   0.167E-01    0.129E-01
RMM:   3    -0.844376127032E+03   -0.44252E-03   -0.28006E-03  2502   0.550E-02    0.118E-01
RMM:   4    -0.844376573417E+03   -0.44639E-03   -0.14808E-03  1651   0.444E-02    0.102E-01
RMM:   5    -0.844377384200E+03   -0.81078E-03   -0.57706E-03  1765   0.503E-02    0.718E-02
RMM:   6    -0.844377839407E+03   -0.45521E-03   -0.15635E-03  1529   0.459E-02    0.553E-02
RMM:   7    -0.844378214864E+03   -0.37546E-03   -0.18290E-03  1532   0.383E-02    0.555E-02
RMM:   8    -0.844378507028E+03   -0.29216E-03   -0.69052E-04  1438   0.366E-02    0.459E-02
RMM:   9    -0.844379015273E+03   -0.50824E-03   -0.26266E-03  1539   0.406E-02    0.481E-02
RMM:  10    -0.844379170398E+03   -0.15513E-03   -0.67653E-04  1395   0.314E-02    0.443E-02
RMM:  11    -0.844379568346E+03   -0.39795E-03   -0.15096E-03  1443   0.362E-02    0.359E-02
RMM:  12    -0.844379922271E+03   -0.35392E-03   -0.23420E-03  1480   0.314E-02    0.425E-02
RMM:  13    -0.844380452547E+03   -0.53028E-03   -0.31220E-03  1529   0.468E-02    0.299E-02
RMM:  14    -0.844381108138E+03   -0.65559E-03   -0.71688E-03  1602   0.421E-02    0.416E-02
RMM:  15    -0.844381381294E+03   -0.27316E-03   -0.56907E-04  1410   0.343E-02    0.349E-02
RMM:  16    -0.844381530099E+03   -0.14880E-03   -0.69902E-04  1349   0.237E-02    0.405E-02
RMM:  17    -0.844381158482E+03    0.37162E-03   -0.51081E-04  1320   0.288E-02    0.510E-02
RMM:  18    -0.844381749299E+03   -0.59082E-03   -0.11851E-03  1369   0.307E-02    0.317E-02
RMM:  19    -0.844382269543E+03   -0.52024E-03   -0.63529E-03  1523   0.456E-02    0.304E-02
RMM:  20    -0.844382810026E+03   -0.54048E-03   -0.51622E-03  1379   0.329E-02    0.405E-02
RMM:  21    -0.844383016929E+03   -0.20690E-03   -0.42683E-04  1320   0.240E-02    0.372E-02
RMM:  22    -0.844382628421E+03    0.38851E-03   -0.44244E-04  1294   0.282E-02    0.506E-02
RMM:  23    -0.844383088199E+03   -0.45978E-03   -0.76799E-04  1297   0.258E-02    0.360E-02
RMM:  24    -0.844383581753E+03   -0.49355E-03   -0.53201E-03  1461   0.409E-02    0.299E-02
RMM:  25    -0.844383974013E+03   -0.39226E-03   -0.33614E-03  1337   0.267E-02    0.418E-02
RMM:  26    -0.844384085435E+03   -0.11142E-03   -0.21513E-04  1253   0.199E-02    0.390E-02
RMM:  27    -0.844384186155E+03   -0.10072E-03   -0.33182E-04  1247   0.192E-02    0.427E-02
RMM:  28    -0.844383944033E+03    0.24212E-03   -0.21935E-04  1227   0.175E-02    0.500E-02
RMM:  29    -0.844383930709E+03    0.13324E-04   -0.12844E-04  1208   0.122E-02
   4 F= -.86446832E+03 E0= -.86446832E+03  d E =0.128012E+02  mag=     2.0000
       N       E                     dE             d eps       ncg     rms          rms(c)
DAV:   1    -0.844373698278E+03    0.10246E-01   -0.21662E+00  2344   0.199E+00    0.572E-01
RMM:   2    -0.844385279151E+03   -0.11581E-01   -0.13919E-01  2786   0.819E-01    0.543E-01
RMM:   3    -0.844389190504E+03   -0.39114E-02   -0.40674E-02  3425   0.250E-01    0.487E-01
RMM:   4    -0.844389754958E+03   -0.56445E-03   -0.11358E-02  3222   0.125E-01    0.436E-01
RMM:   5    -0.844391412065E+03   -0.16571E-02   -0.12481E-02  3279   0.117E-01    0.249E-01
RMM:   6    -0.844391476619E+03   -0.64554E-04   -0.49182E-03  2920   0.716E-02    0.146E-01
RMM:   7    -0.844391557863E+03   -0.81244E-04   -0.58419E-03  3132   0.769E-02    0.707E-02
RMM:   8    -0.844391655426E+03   -0.97563E-04   -0.10350E-03  1890   0.496E-02    0.703E-02
RMM:   9    -0.844391707915E+03   -0.52489E-04   -0.32394E-04  1499   0.295E-02
   5 F= -.86447540E+03 E0= -.86447540E+03  d E =0.127941E+02  mag=     2.0000
       N       E                     dE             d eps       ncg     rms          rms(c)
DAV:   1    -0.844449306455E+03   -0.57651E-01   -0.44176E+00  2448   0.261E+00    0.623E-01
RMM:   2    -0.844472758253E+03   -0.23452E-01   -0.25148E-01  2996   0.853E-01    0.496E-01
RMM:   3    -0.844477744294E+03   -0.49860E-02   -0.52712E-02  3296   0.267E-01    0.452E-01
RMM:   4    -0.844478780420E+03   -0.10361E-02   -0.18006E-02  3182   0.131E-01    0.347E-01
RMM:   5    -0.844480695070E+03   -0.19147E-02   -0.13179E-02  3174   0.109E-01    0.192E-01
RMM:   6    -0.844481037512E+03   -0.34244E-03   -0.55961E-03  2927   0.731E-02    0.117E-01
RMM:   7    -0.844481502296E+03   -0.46478E-03   -0.52992E-03  2910   0.671E-02    0.820E-02
RMM:   8    -0.844481663619E+03   -0.16132E-03   -0.13736E-03  1771   0.481E-02    0.790E-02
RMM:   9    -0.844481779044E+03   -0.11543E-03   -0.66804E-04  1599   0.310E-02    0.729E-02
RMM:  10    -0.844482044573E+03   -0.26553E-03   -0.10702E-03  1578   0.387E-02    0.597E-02
RMM:  11    -0.844482439093E+03   -0.39452E-03   -0.25213E-03  1569   0.386E-02    0.427E-02
RMM:  12    -0.844482731507E+03   -0.29241E-03   -0.10993E-03  1549   0.413E-02    0.388E-02
RMM:  13    -0.844482933623E+03   -0.20212E-03   -0.11921E-03  1444   0.325E-02    0.379E-02
RMM:  14    -0.844483040398E+03   -0.10677E-03   -0.24220E-04  1408   0.291E-02    0.380E-02
RMM:  15    -0.844482856681E+03    0.18372E-03   -0.16459E-04  1386   0.274E-02    0.441E-02
RMM:  16    -0.844483355475E+03   -0.49879E-03   -0.16899E-03  1458   0.379E-02    0.290E-02
RMM:  17    -0.844483842577E+03   -0.48710E-03   -0.47365E-03  1580   0.368E-02    0.384E-02
RMM:  18    -0.844484153938E+03   -0.31136E-03   -0.10376E-03  1468   0.362E-02    0.286E-02
RMM:  19    -0.844484520717E+03   -0.36678E-03   -0.29398E-03  1503   0.328E-02    0.390E-02
RMM:  20    -0.844484651061E+03   -0.13034E-03   -0.28079E-04  1376   0.284E-02    0.338E-02
RMM:  21    -0.844484897100E+03   -0.24604E-03   -0.10261E-03  1453   0.280E-02    0.327E-02
RMM:  22    -0.844485016232E+03   -0.11913E-03   -0.83344E-04  1350   0.251E-02    0.384E-02
RMM:  23    -0.844485385293E+03   -0.36906E-03   -0.18356E-03  1462   0.347E-02    0.318E-02
RMM:  24    -0.844485433565E+03   -0.48273E-04   -0.63072E-04  1347   0.231E-02
   6 F= -.86457064E+03 E0= -.86457064E+03  d E =-.952476E-01  mag=     2.0000
       N       E                     dE             d eps       ncg     rms          rms(c)
DAV:   1    -0.844442023684E+03    0.43362E-01   -0.40559E+01  2632   0.813E+00    0.183E+00
RMM:   2    -0.844604070019E+03   -0.16205E+00   -0.16818E+00  2791   0.253E+00    0.148E+00
RMM:   3    -0.844649099106E+03   -0.45029E-01   -0.48070E-01  3376   0.747E-01    0.137E+00
RMM:   4    -0.844652560441E+03   -0.34613E-02   -0.12240E-01  3216   0.414E-01    0.105E+00
RMM:   5    -0.844669918220E+03   -0.17358E-01   -0.12251E-01  3326   0.327E-01    0.608E-01
RMM:   6    -0.844666905835E+03    0.30124E-02   -0.37789E-02  3146   0.223E-01    0.372E-01
RMM:   7    -0.844668955297E+03   -0.20495E-02   -0.62256E-02  3206   0.230E-01    0.274E-01
RMM:   8    -0.844668949921E+03    0.53769E-05   -0.99121E-03  2711   0.167E-01    0.219E-01
RMM:   9    -0.844669363765E+03   -0.41384E-03   -0.68328E-03  3351   0.651E-02    0.197E-01
RMM:  10    -0.844669810464E+03   -0.44670E-03   -0.35400E-03  2640   0.562E-02    0.161E-01
RMM:  11    -0.844670446742E+03   -0.63628E-03   -0.52292E-03  2674   0.550E-02    0.779E-02
RMM:  12    -0.844670702420E+03   -0.25568E-03   -0.20578E-03  2427   0.496E-02    0.519E-02
RMM:  13    -0.844670894372E+03   -0.19195E-03   -0.13068E-03  1717   0.369E-02    0.498E-02
RMM:  14    -0.844670929424E+03   -0.35052E-04   -0.30160E-04  1500   0.350E-02
   7 F= -.86476071E+03 E0= -.86476071E+03  d E =-.285318E+00  mag=     2.0000
       N       E                     dE             d eps       ncg     rms          rms(c)
DAV:   1    -0.843703486571E+03    0.96741E+00   -0.16358E+02  2696   0.177E+01    0.406E+00
RMM:   2    -0.844387796406E+03   -0.68431E+00   -0.70732E+00  2803   0.513E+00    0.318E+00
RMM:   3    -0.844568001537E+03   -0.18021E+00   -0.19566E+00  3389   0.150E+00    0.296E+00
RMM:   4    -0.844575601966E+03   -0.76004E-02   -0.45489E-01  3194   0.840E-01    0.222E+00
RMM:   5    -0.844637755305E+03   -0.62153E-01   -0.50138E-01  3375   0.669E-01    0.122E+00
RMM:   6    -0.844625853921E+03    0.11901E-01   -0.14632E-01  3141   0.463E-01    0.747E-01
RMM:   7    -0.844633590069E+03   -0.77361E-02   -0.25435E-01  3307   0.460E-01    0.583E-01
RMM:   8    -0.844632667756E+03    0.92231E-03   -0.39698E-02  2789   0.331E-01    0.434E-01
RMM:   9    -0.844633893837E+03   -0.12261E-02   -0.27528E-02  3480   0.130E-01    0.403E-01
RMM:  10    -0.844634781333E+03   -0.88750E-03   -0.11844E-02  3403   0.988E-02    0.387E-01
RMM:  11    -0.844636739512E+03   -0.19582E-02   -0.10394E-02  3530   0.871E-02    0.294E-01
RMM:  12    -0.844636895424E+03   -0.15591E-03   -0.13854E-02  3235   0.110E-01    0.965E-02
RMM:  13    -0.844637431407E+03   -0.53598E-03   -0.60973E-03  3127   0.747E-02    0.787E-02
RMM:  14    -0.844637621581E+03   -0.19017E-03   -0.19476E-03  2221   0.526E-02    0.724E-02
RMM:  15    -0.844637683101E+03   -0.61520E-04   -0.88788E-04  1832   0.354E-02
   8 F= -.86473665E+03 E0= -.86473665E+03  d E =-.261255E+00  mag=     2.0000
       N       E                     dE             d eps       ncg     rms          rms(c)
DAV:   1    -0.844422992076E+03    0.21463E+00   -0.54799E+01  2784   0.963E+00    0.232E+00
RMM:   2    -0.844646414563E+03   -0.22342E+00   -0.23644E+00  2831   0.295E+00    0.186E+00
RMM:   3    -0.844704260841E+03   -0.57846E-01   -0.61260E-01  3362   0.861E-01    0.173E+00
RMM:   4    -0.844707347340E+03   -0.30865E-02   -0.14379E-01  3174   0.466E-01    0.129E+00
RMM:   5    -0.844728420278E+03   -0.21073E-01   -0.15271E-01  3321   0.372E-01    0.658E-01
RMM:   6    -0.844724991229E+03    0.34290E-02   -0.45918E-02  3062   0.260E-01    0.382E-01
RMM:   7    -0.844727590870E+03   -0.25996E-02   -0.67672E-02  3233   0.233E-01    0.325E-01
RMM:   8    -0.844727409141E+03    0.18173E-03   -0.11900E-02  2753   0.177E-01    0.247E-01
RMM:   9    -0.844727855410E+03   -0.44627E-03   -0.82335E-03  3270   0.737E-02    0.218E-01
RMM:  10    -0.844728350831E+03   -0.49542E-03   -0.40924E-03  2594   0.580E-02    0.184E-01
RMM:  11    -0.844729037989E+03   -0.68716E-03   -0.47099E-03  2656   0.587E-02    0.776E-02
RMM:  12    -0.844729294936E+03   -0.25695E-03   -0.30421E-03  2529   0.498E-02    0.581E-02
RMM:  13    -0.844729454393E+03   -0.15946E-03   -0.88456E-04  1724   0.367E-02    0.501E-02
RMM:  14    -0.844729551701E+03   -0.97308E-04   -0.61170E-04  1514   0.357E-02
   9 F= -.86482317E+03 E0= -.86482317E+03  d E =-.347773E+00  mag=     2.0000
       N       E                     dE             d eps       ncg     rms          rms(c)
DAV:   1    -0.844740217968E+03   -0.10764E-01   -0.14043E+01  2464   0.496E+00    0.120E+00
RMM:   2    -0.844804636618E+03   -0.64419E-01   -0.70623E-01  2858   0.169E+00    0.105E+00
RMM:   3    -0.844819943641E+03   -0.15307E-01   -0.16409E-01  3383   0.497E-01    0.923E-01
RMM:   4    -0.844822592359E+03   -0.26487E-02   -0.51085E-02  3207   0.267E-01    0.665E-01
RMM:   5    -0.844827215979E+03   -0.46236E-02   -0.31894E-02  3356   0.180E-01    0.317E-01
RMM:   6    -0.844826660990E+03    0.55499E-03   -0.13819E-02  3279   0.118E-01    0.170E-01
RMM:   7    -0.844826961034E+03   -0.30004E-03   -0.12559E-02  3266   0.110E-01    0.125E-01
RMM:   8    -0.844827190392E+03   -0.22936E-03   -0.33660E-03  2688   0.685E-02    0.126E-01
RMM:   9    -0.844827315076E+03   -0.12468E-03   -0.15003E-03  2327   0.403E-02    0.125E-01
RMM:  10    -0.844827471767E+03   -0.15669E-03   -0.10697E-03  1822   0.375E-02    0.116E-01
RMM:  11    -0.844827839085E+03   -0.36732E-03   -0.21233E-03  1852   0.493E-02    0.662E-02
RMM:  12    -0.844828274767E+03   -0.43568E-03   -0.42175E-03  2052   0.547E-02    0.447E-02
RMM:  13    -0.844828362804E+03   -0.88037E-04   -0.40818E-04  1516   0.337E-02
  10 F= -.86491798E+03 E0= -.86491798E+03  d E =-.948106E-01  mag=     2.0000
       N       E                     dE             d eps       ncg     rms          rms(c)
DAV:   1    -0.844809680436E+03    0.18594E-01   -0.11827E+01  2416   0.454E+00    0.108E+00
RMM:   2    -0.844863790200E+03   -0.54110E-01   -0.59686E-01  2856   0.155E+00    0.930E-01
RMM:   3    -0.844877513064E+03   -0.13723E-01   -0.14704E-01  3440   0.459E-01    0.822E-01
RMM:   4    -0.844879799831E+03   -0.22868E-02   -0.46365E-02  3229   0.242E-01    0.608E-01
RMM:   5    -0.844883926175E+03   -0.41263E-02   -0.29979E-02  3370   0.173E-01    0.303E-01
RMM:   6    -0.844883756714E+03    0.16946E-03   -0.13733E-02  3321   0.113E-01    0.160E-01
RMM:   7    -0.844884153740E+03   -0.39703E-03   -0.11951E-02  3290   0.106E-01    0.123E-01
RMM:   8    -0.844884393244E+03   -0.23950E-03   -0.34734E-03  2718   0.653E-02    0.126E-01
RMM:   9    -0.844884504373E+03   -0.11113E-03   -0.15008E-03  2355   0.404E-02    0.130E-01
RMM:  10    -0.844884519990E+03   -0.15617E-04   -0.99579E-04  1870   0.363E-02
  11 F= -.86497049E+03 E0= -.86497049E+03  d E =-.147319E+00  mag=     2.0000
       N       E                     dE             d eps       ncg     rms          rms(c)
DAV:   1    -0.844643826323E+03    0.24068E+00   -0.47663E+01  2528   0.918E+00    0.200E+00
RMM:   2    -0.844824950703E+03   -0.18112E+00   -0.19704E+00  2745   0.310E+00    0.178E+00
RMM:   3    -0.844879164573E+03   -0.54214E-01   -0.58375E-01  3399   0.904E-01    0.159E+00
RMM:   4    -0.844884304342E+03   -0.51398E-02   -0.13718E-01  3219   0.502E-01    0.121E+00
RMM:   5    -0.844900976512E+03   -0.16672E-01   -0.12240E-01  3409   0.330E-01    0.615E-01
RMM:   6    -0.844898832534E+03    0.21440E-02   -0.45753E-02  3360   0.220E-01    0.333E-01
RMM:   7    -0.844899429857E+03   -0.59732E-03   -0.45821E-02  3379   0.197E-01    0.236E-01
RMM:   8    -0.844899986822E+03   -0.55696E-03   -0.11366E-02  3089   0.127E-01    0.223E-01
RMM:   9    -0.844900525648E+03   -0.53883E-03   -0.72407E-03  3606   0.686E-02    0.218E-01
RMM:  10    -0.844900911626E+03   -0.38598E-03   -0.40495E-03  2800   0.618E-02    0.182E-01
RMM:  11    -0.844901625597E+03   -0.71397E-03   -0.63281E-03  3085   0.729E-02    0.537E-02
RMM:  12    -0.844901966053E+03   -0.34046E-03   -0.32746E-03  2597   0.485E-02    0.514E-02
RMM:  13    -0.844902065499E+03   -0.99446E-04   -0.78699E-04  1742   0.369E-02
  12 F= -.86498079E+03 E0= -.86498079E+03  d E =-.157618E+00  mag=     2.0000
       N       E                     dE             d eps       ncg     rms          rms(c)
DAV:   1    -0.844839519321E+03    0.62447E-01   -0.12185E+01  2656   0.461E+00    0.107E+00
RMM:   2    -0.844892021672E+03   -0.52502E-01   -0.57697E-01  2823   0.157E+00    0.907E-01
RMM:   3    -0.844905432317E+03   -0.13411E-01   -0.14110E-01  3334   0.458E-01    0.790E-01
RMM:   4    -0.844907057177E+03   -0.16249E-02   -0.34728E-02  3081   0.250E-01    0.565E-01
RMM:   5    -0.844911078672E+03   -0.40215E-02   -0.26261E-02  3300   0.164E-01    0.275E-01
RMM:   6    -0.844910656724E+03    0.42195E-03   -0.10638E-02  3220   0.106E-01    0.155E-01
RMM:   7    -0.844910976685E+03   -0.31996E-03   -0.10332E-02  3199   0.999E-02    0.113E-01
RMM:   8    -0.844911105887E+03   -0.12920E-03   -0.24711E-03  2437   0.655E-02    0.105E-01
RMM:   9    -0.844911199027E+03   -0.93140E-04   -0.11127E-03  1987   0.381E-02    0.956E-02
RMM:  10    -0.844911371313E+03   -0.17229E-03   -0.94201E-04  1664   0.378E-02    0.850E-02
RMM:  11    -0.844911719060E+03   -0.34775E-03   -0.20100E-03  1674   0.460E-02    0.448E-02
RMM:  12    -0.844911887813E+03   -0.16875E-03   -0.12002E-03  1523   0.413E-02    0.365E-02
RMM:  13    -0.844911975907E+03   -0.88094E-04   -0.27430E-04  1391   0.321E-02
  13 F= -.86499437E+03 E0= -.86499437E+03  d E =-.171201E+00  mag=     2.0000
       N       E                     dE             d eps       ncg     rms          rms(c)
DAV:   1    -0.844895237588E+03    0.16650E-01   -0.11405E+01  2288   0.449E+00    0.785E-01
RMM:   2    -0.844941607850E+03   -0.46370E-01   -0.51485E-01  2812   0.154E+00    0.674E-01
RMM:   3    -0.844953693018E+03   -0.12085E-01   -0.12609E-01  3282   0.442E-01    0.597E-01
RMM:   4    -0.844954367616E+03   -0.67460E-03   -0.28772E-02  3263   0.208E-01    0.495E-01
RMM:   5    -0.844956785267E+03   -0.24177E-02   -0.22246E-02  3339   0.154E-01    0.303E-01
RMM:   6    -0.844956673632E+03    0.11164E-03   -0.66966E-03  3097   0.981E-02    0.186E-01
RMM:   7    -0.844956882822E+03   -0.20919E-03   -0.88017E-03  3221   0.919E-02    0.109E-01
RMM:   8    -0.844956966960E+03   -0.84137E-04   -0.14385E-03  2233   0.553E-02    0.983E-02
RMM:   9    -0.844957026099E+03   -0.59139E-04   -0.63628E-04  1743   0.346E-02
  14 F= -.86503729E+03 E0= -.86503729E+03  d E =-.429182E-01  mag=     2.0000
       N       E                     dE             d eps       ncg     rms          rms(c)
DAV:   1    -0.844955900605E+03    0.10664E-02   -0.14512E+00  2360   0.160E+00    0.283E-01
RMM:   2    -0.844962105863E+03   -0.62053E-02   -0.68546E-02  2808   0.563E-01    0.253E-01
RMM:   3    -0.844964094609E+03   -0.19887E-02   -0.20390E-02  3492   0.164E-01    0.230E-01
RMM:   4    -0.844964348389E+03   -0.25378E-03   -0.51824E-03  3287   0.765E-02    0.205E-01
RMM:   5    -0.844964789014E+03   -0.44062E-03   -0.37081E-03  3170   0.625E-02    0.141E-01
RMM:   6    -0.844965114771E+03   -0.32576E-03   -0.21649E-03  2216   0.462E-02    0.833E-02
RMM:   7    -0.844965330495E+03   -0.21572E-03   -0.21233E-03  1995   0.458E-02    0.503E-02
RMM:   8    -0.844965437917E+03   -0.10742E-03   -0.53012E-04  1573   0.387E-02    0.430E-02
RMM:   9    -0.844965527472E+03   -0.89555E-04   -0.52154E-04  1430   0.370E-02
  15 F= -.86504504E+03 E0= -.86504504E+03  d E =-.506665E-01  mag=     2.0000
       N       E                     dE             d eps       ncg     rms          rms(c)
DAV:   1    -0.844935023235E+03    0.30415E-01   -0.57660E+00  2280   0.319E+00    0.525E-01
RMM:   2    -0.844959052093E+03   -0.24029E-01   -0.26507E-01  2808   0.111E+00    0.456E-01
RMM:   3    -0.844965898114E+03   -0.68460E-02   -0.71018E-02  3396   0.318E-01    0.408E-01
RMM:   4    -0.844966367191E+03   -0.46908E-03   -0.16928E-02  3325   0.146E-01    0.352E-01
RMM:   5    -0.844967481437E+03   -0.11142E-02   -0.11625E-02  3323   0.111E-01    0.239E-01
RMM:   6    -0.844967836358E+03   -0.35492E-03   -0.48208E-03  3074   0.744E-02    0.147E-01
RMM:   7    -0.844968170875E+03   -0.33452E-03   -0.50222E-03  3229   0.676E-02    0.800E-02
RMM:   8    -0.844968273067E+03   -0.10219E-03   -0.10928E-03  1984   0.398E-02    0.750E-02
RMM:   9    -0.844968308233E+03   -0.35166E-04   -0.40812E-04  1550   0.354E-02
  16 F= -.86504632E+03 E0= -.86504632E+03  d E =-.519460E-01  mag=     2.0000
       N       E                     dE             d eps       ncg     rms          rms(c)
DAV:   1    -0.844956799010E+03    0.11474E-01   -0.24295E+00  2336   0.208E+00    0.346E-01
RMM:   2    -0.844966461166E+03   -0.96622E-02   -0.10791E-01  2783   0.709E-01    0.292E-01
RMM:   3    -0.844968983857E+03   -0.25227E-02   -0.25899E-02  3150   0.201E-01    0.257E-01
RMM:   4    -0.844969082070E+03   -0.98213E-04   -0.49631E-03  2991   0.980E-02    0.212E-01
RMM:   5    -0.844969774522E+03   -0.69245E-03   -0.53811E-03  2984   0.761E-02    0.136E-01
RMM:   6    -0.844969776816E+03   -0.22941E-05   -0.11108E-03  1938   0.507E-02    0.910E-02
RMM:   7    -0.844969917557E+03   -0.14074E-03   -0.27813E-03  2410   0.583E-02    0.483E-02
RMM:   8    -0.844969975201E+03   -0.57644E-04   -0.25562E-04  1394   0.376E-02
  17 F= -.86504896E+03 E0= -.86504896E+03  d E =-.545932E-01  mag=     2.0000
       N       E                     dE             d eps       ncg     rms          rms(c)
DAV:   1    -0.844967575451E+03    0.23421E-02   -0.60852E-01  2360   0.104E+00    0.172E-01
RMM:   2    -0.844970058553E+03   -0.24831E-02   -0.27210E-02  2754   0.355E-01    0.149E-01
RMM:   3    -0.844970676979E+03   -0.61843E-03   -0.61970E-03  3034   0.101E-01    0.134E-01
RMM:   4    -0.844970715792E+03   -0.38813E-04   -0.10350E-03  2120   0.517E-02    0.111E-01
RMM:   5    -0.844971033904E+03   -0.31811E-03   -0.22120E-03  2326   0.571E-02    0.742E-02
RMM:   6    -0.844971102444E+03   -0.68539E-04   -0.85156E-04  1403   0.356E-02
  18 F= -.86504960E+03 E0= -.86504960E+03  d E =-.552300E-01  mag=     2.0000
       N       E                     dE             d eps       ncg     rms          rms(c)
DAV:   1    -0.844936069906E+03    0.34964E-01   -0.14376E+01  2272   0.522E+00    0.823E-01
RMM:   2    -0.844988847436E+03   -0.52778E-01   -0.58583E-01  2833   0.165E+00    0.672E-01
RMM:   3    -0.845002178646E+03   -0.13331E-01   -0.14129E-01  3353   0.451E-01    0.605E-01
RMM:   4    -0.845002340399E+03   -0.16175E-03   -0.31714E-02  3356   0.205E-01    0.503E-01
RMM:   5    -0.845004127137E+03   -0.17867E-02   -0.22901E-02  3358   0.159E-01    0.312E-01
RMM:   6    -0.845004224962E+03   -0.97825E-04   -0.77193E-03  3231   0.968E-02    0.181E-01
RMM:   7    -0.845004350052E+03   -0.12509E-03   -0.82817E-03  3291   0.914E-02    0.101E-01
RMM:   8    -0.845004471745E+03   -0.12169E-03   -0.20119E-03  2503   0.535E-02    0.948E-02
RMM:   9    -0.845004511892E+03   -0.40148E-04   -0.70590E-04  1955   0.380E-02
  19 F= -.86507995E+03 E0= -.86507995E+03  d E =-.303470E-01  mag=     2.0000
       N       E                     dE             d eps       ncg     rms          rms(c)
DAV:   1    -0.845003569221E+03    0.90252E-03   -0.13926E+00  2400   0.162E+00    0.266E-01
RMM:   2    -0.845008879243E+03   -0.53100E-02   -0.57709E-02  2803   0.520E-01    0.219E-01
RMM:   3    -0.845010508167E+03   -0.16289E-02   -0.16723E-02  3504   0.146E-01    0.201E-01
RMM:   4    -0.845010714066E+03   -0.20590E-03   -0.43614E-03  3338   0.671E-02    0.181E-01
RMM:   5    -0.845010983757E+03   -0.26969E-03   -0.25847E-03  3010   0.531E-02    0.122E-01
RMM:   6    -0.845011284420E+03   -0.30066E-03   -0.19984E-03  2218   0.445E-02    0.615E-02
RMM:   7    -0.845011451354E+03   -0.16693E-03   -0.14112E-03  1697   0.398E-02    0.413E-02
RMM:   8    -0.845011544294E+03   -0.92940E-04   -0.40816E-04  1470   0.369E-02
  20 F= -.86508603E+03 E0= -.86508603E+03  d E =-.364324E-01  mag=     2.0000
       N       E                     dE             d eps       ncg     rms          rms(c)
DAV:   1    -0.844991492486E+03    0.19959E-01   -0.55504E+00  2280   0.324E+00    0.502E-01
RMM:   2    -0.845011923667E+03   -0.20431E-01   -0.22504E-01  2817   0.103E+00    0.406E-01
RMM:   3    -0.845017416571E+03   -0.54929E-02   -0.57724E-02  3406   0.282E-01    0.368E-01
RMM:   4    -0.845017652269E+03   -0.23570E-03   -0.13589E-02  3379   0.127E-01    0.312E-01
RMM:   5    -0.845018327233E+03   -0.67496E-03   -0.86942E-03  3360   0.977E-02    0.199E-01
RMM:   6    -0.845018619050E+03   -0.29182E-03   -0.41187E-03  3101   0.612E-02    0.113E-01
RMM:   7    -0.845018796284E+03   -0.17723E-03   -0.29752E-03  3163   0.571E-02    0.635E-02
RMM:   8    -0.845018873135E+03   -0.76851E-04   -0.10117E-03  1849   0.360E-02    0.622E-02
RMM:   9    -0.845018874948E+03   -0.18134E-05   -0.19917E-04  1432   0.348E-02
  21 F= -.86509147E+03 E0= -.86509147E+03  d E =-.418739E-01  mag=     2.0000
       N       E                     dE             d eps       ncg     rms          rms(c)
DAV:   1    -0.845007645904E+03    0.11227E-01   -0.73754E+00  2336   0.375E+00    0.677E-01
RMM:   2    -0.845033700737E+03   -0.26055E-01   -0.30627E-01  2877   0.116E+00    0.579E-01
RMM:   3    -0.845040186196E+03   -0.64855E-02   -0.70311E-02  3390   0.318E-01    0.523E-01
RMM:   4    -0.845040153097E+03    0.33099E-04   -0.14690E-02  3169   0.157E-01    0.413E-01
RMM:   5    -0.845041931682E+03   -0.17786E-02   -0.16360E-02  3294   0.139E-01    0.235E-01
RMM:   6    -0.845041553377E+03    0.37831E-03   -0.55504E-03  3096   0.893E-02    0.130E-01
RMM:   7    -0.845041654486E+03   -0.10111E-03   -0.62311E-03  3111   0.785E-02    0.782E-02
RMM:   8    -0.845041693344E+03   -0.38858E-04   -0.97949E-04  2017   0.575E-02
  22 F= -.86511162E+03 E0= -.86511162E+03  d E =-.201490E-01  mag=     2.0000
       N       E                     dE             d eps       ncg     rms          rms(c)
DAV:   1    -0.845042475565E+03   -0.82108E-03   -0.29927E-01  2768   0.751E-01    0.156E-01
RMM:   2    -0.845043713688E+03   -0.12381E-02   -0.13125E-02  2821   0.240E-01    0.132E-01
RMM:   3    -0.845044135099E+03   -0.42141E-03   -0.40931E-03  3451   0.702E-02    0.121E-01
RMM:   4    -0.845044257880E+03   -0.12278E-03   -0.11402E-03  2012   0.394E-02    0.101E-01
RMM:   5    -0.845044493494E+03   -0.23561E-03   -0.14962E-03  1865   0.439E-02    0.496E-02
RMM:   6    -0.845044661640E+03   -0.16815E-03   -0.12160E-03  1465   0.405E-02    0.342E-02
RMM:   7    -0.845044727958E+03   -0.66318E-04   -0.26520E-04  1399   0.306E-02
  23 F= -.86511412E+03 E0= -.86511412E+03  d E =-.226501E-01  mag=     2.0000
       N       E                     dE             d eps       ncg     rms          rms(c)
DAV:   1    -0.845041798518E+03    0.28631E-02   -0.11856E+00  2352   0.150E+00    0.273E-01
RMM:   2    -0.845046237256E+03   -0.44387E-02   -0.51795E-02  2882   0.475E-01    0.226E-01
RMM:   3    -0.845047485199E+03   -0.12479E-02   -0.13141E-02  3497   0.132E-01    0.208E-01
RMM:   4    -0.845047582791E+03   -0.97592E-04   -0.33582E-03  3056   0.653E-02    0.168E-01
RMM:   5    -0.845047977696E+03   -0.39491E-03   -0.34470E-03  3102   0.639E-02    0.998E-02
RMM:   6    -0.845048106219E+03   -0.12852E-03   -0.18539E-03  2008   0.416E-02    0.563E-02
RMM:   7    -0.845048176410E+03   -0.70191E-04   -0.89559E-04  1994   0.430E-02
  24 F= -.86511651E+03 E0= -.86511651E+03  d E =-.250320E-01  mag=     2.0000
       N       E                     dE             d eps       ncg     rms          rms(c)
DAV:   1    -0.845030572269E+03    0.17534E-01   -0.75136E+00  2280   0.369E+00    0.595E-01
RMM:   2    -0.845054731485E+03   -0.24159E-01   -0.26631E-01  2805   0.112E+00    0.417E-01
RMM:   3    -0.845060737140E+03   -0.60057E-02   -0.62981E-02  3278   0.299E-01    0.358E-01
RMM:   4    -0.845060904144E+03   -0.16700E-03   -0.12394E-02  3283   0.139E-01    0.277E-01
RMM:   5    -0.845061627679E+03   -0.72353E-03   -0.90758E-03  3319   0.967E-02    0.157E-01
RMM:   6    -0.845061778844E+03   -0.15116E-03   -0.34881E-03  3038   0.644E-02    0.975E-02
RMM:   7    -0.845062010062E+03   -0.23122E-03   -0.30750E-03  3065   0.537E-02    0.695E-02
RMM:   8    -0.845062044070E+03   -0.34008E-04   -0.59616E-04  1713   0.371E-02
  25 F= -.86512896E+03 E0= -.86512896E+03  d E =-.124545E-01  mag=     2.0000
       N       E                     dE             d eps       ncg     rms          rms(c)
DAV:   1    -0.845062254816E+03   -0.24475E-03   -0.16582E-01  2784   0.547E-01    0.112E-01
RMM:   2    -0.845062892030E+03   -0.63721E-03   -0.63233E-03  2705   0.174E-01    0.860E-02
RMM:   3    -0.845063120888E+03   -0.22886E-03   -0.19625E-03  2640   0.515E-02    0.751E-02
RMM:   4    -0.845063270661E+03   -0.14977E-03   -0.85891E-04  1715   0.441E-02    0.549E-02
RMM:   5    -0.845063467361E+03   -0.19670E-03   -0.13441E-03  1460   0.376E-02    0.301E-02
RMM:   6    -0.845063573649E+03   -0.10629E-03   -0.36629E-04  1381   0.380E-02    0.225E-02
RMM:   7    -0.845063666212E+03   -0.92564E-04   -0.52129E-04  1360   0.301E-02
  26 F= -.86513037E+03 E0= -.86513037E+03  d E =-.138685E-01  mag=     2.0000
       N       E                     dE             d eps       ncg     rms          rms(c)
DAV:   1    -0.845062067374E+03    0.15063E-02   -0.65655E-01  2328   0.109E+00    0.177E-01
RMM:   2    -0.845064324928E+03   -0.22576E-02   -0.24438E-02  2780   0.336E-01    0.124E-01
RMM:   3    -0.845064991625E+03   -0.66670E-03   -0.66741E-03  3389   0.924E-02    0.108E-01
RMM:   4    -0.845065062856E+03   -0.71232E-04   -0.14313E-03  2379   0.448E-02    0.884E-02
RMM:   5    -0.845065215897E+03   -0.15304E-03   -0.11919E-03  2032   0.427E-02    0.508E-02
RMM:   6    -0.845065362256E+03   -0.14636E-03   -0.10454E-03  1484   0.406E-02    0.342E-02
RMM:   7    -0.845065417887E+03   -0.55631E-04   -0.24269E-04  1387   0.313E-02
  27 F= -.86513171E+03 E0= -.86513171E+03  d E =-.152044E-01  mag=     2.0000
       N       E                     dE             d eps       ncg     rms          rms(c)
DAV:   1    -0.845054676387E+03    0.10686E-01   -0.52620E+00  2320   0.312E+00    0.457E-01
RMM:   2    -0.845070267229E+03   -0.15591E-01   -0.17223E-01  2741   0.916E-01    0.410E-01
RMM:   3    -0.845074441041E+03   -0.41738E-02   -0.44384E-02  3261   0.251E-01    0.376E-01
RMM:   4    -0.845074499997E+03   -0.58956E-04   -0.91696E-03  3251   0.116E-01    0.315E-01
RMM:   5    -0.845075029475E+03   -0.52948E-03   -0.74367E-03  3273   0.890E-02    0.181E-01
RMM:   6    -0.845075212105E+03   -0.18263E-03   -0.32314E-03  2952   0.584E-02    0.939E-02
RMM:   7    -0.845075198465E+03    0.13640E-04   -0.21312E-03  2869   0.497E-02    0.641E-02
RMM:   8    -0.845075220845E+03   -0.22380E-04   -0.52842E-04  1624   0.357E-02
  28 F= -.86513960E+03 E0= -.86513960E+03  d E =-.789380E-02  mag=     2.0000
       N       E                     dE             d eps       ncg     rms          rms(c)
DAV:   1    -0.845075439700E+03   -0.24123E-03   -0.20624E-02  3040   0.195E-01    0.748E-02
RMM:   2    -0.845075561240E+03   -0.12154E-03   -0.94719E-04  2113   0.721E-02    0.598E-02
RMM:   3    -0.845075666820E+03   -0.10558E-03   -0.60469E-04  1541   0.318E-02    0.475E-02
RMM:   4    -0.845075801873E+03   -0.13505E-03   -0.60847E-04  1361   0.385E-02    0.306E-02
RMM:   5    -0.845075921241E+03   -0.11937E-03   -0.78926E-04  1315   0.293E-02    0.237E-02
RMM:   6    -0.845075995368E+03   -0.74128E-04   -0.24207E-04  1262   0.308E-02
  29 F= -.86514026E+03 E0= -.86514026E+03  d E =-.855270E-02  mag=     2.0000
       N       E                     dE             d eps       ncg     rms          rms(c)
DAV:   1    -0.845076238467E+03   -0.31723E-03   -0.78790E-02  2392   0.382E-01    0.546E-02
RMM:   2    -0.845076557953E+03   -0.31949E-03   -0.31312E-03  2646   0.117E-01    0.530E-02
RMM:   3    -0.845076625192E+03   -0.67239E-04   -0.60372E-04  1710   0.357E-02
  30 F= -.86514066E+03 E0= -.86514066E+03  d E =-.895138E-02  mag=     2.0000
       N       E                     dE             d eps       ncg     rms          rms(c)
DAV:   1    -0.845067146930E+03    0.94110E-02   -0.33379E+00  2272   0.249E+00    0.360E-01
RMM:   2    -0.845078501113E+03   -0.11354E-01   -0.12930E-01  2797   0.797E-01    0.304E-01
RMM:   3    -0.845081720838E+03   -0.32197E-02   -0.33684E-02  3334   0.216E-01    0.270E-01
RMM:   4    -0.845081639259E+03    0.81579E-04   -0.66937E-03  3136   0.108E-01    0.228E-01
RMM:   5    -0.845082226889E+03   -0.58763E-03   -0.63763E-03  3244   0.831E-02    0.157E-01
RMM:   6    -0.845082190349E+03    0.36540E-04   -0.19290E-03  2646   0.553E-02    0.104E-01
RMM:   7    -0.845082350151E+03   -0.15980E-03   -0.31536E-03  2833   0.563E-02    0.563E-02
RMM:   8    -0.845082387052E+03   -0.36901E-04   -0.34322E-04  1536   0.371E-02
  31 F= -.86514607E+03 E0= -.86514607E+03  d E =-.541084E-02  mag=     2.0000
       N       E                     dE             d eps       ncg     rms          rms(c)
DAV:   1    -0.845082542565E+03   -0.19241E-03   -0.38318E-02  2912   0.268E-01    0.601E-02
RMM:   2    -0.845082735173E+03   -0.19261E-03   -0.18386E-03  2533   0.933E-02    0.514E-02
RMM:   3    -0.845082809189E+03   -0.74016E-04   -0.52864E-04  1677   0.325E-02
  32 F= -.86514646E+03 E0= -.86514646E+03  d E =-.579625E-02  mag=     2.0000
       N       E                     dE             d eps       ncg     rms          rms(c)
DAV:   1    -0.845079800524E+03    0.29346E-02   -0.13583E+00  2360   0.160E+00    0.281E-01
RMM:   2    -0.845084862914E+03   -0.50624E-02   -0.55087E-02  2840   0.493E-01    0.233E-01
RMM:   3    -0.845086115250E+03   -0.12523E-02   -0.13321E-02  3400   0.133E-01    0.203E-01
RMM:   4    -0.845086274883E+03   -0.15963E-03   -0.34126E-03  3051   0.700E-02    0.159E-01
RMM:   5    -0.845086600762E+03   -0.32588E-03   -0.26244E-03  2789   0.523E-02    0.789E-02
RMM:   6    -0.845086711412E+03   -0.11065E-03   -0.92282E-04  1785   0.383E-02    0.503E-02
RMM:   7    -0.845086794431E+03   -0.83019E-04   -0.90639E-04  1707   0.383E-02
  33 F= -.86514971E+03 E0= -.86514971E+03  d E =-.325367E-02  mag=     2.0000
