       N       E                     dE             d eps       ncg     rms          rms(c)
DAV:   1     0.156156886497E+05    0.15616E+05   -0.33460E+05  2312   0.149E+03
DAV:   2     0.585567653868E+04   -0.97600E+04   -0.85766E+04  2440   0.395E+02
DAV:   3     0.669505801880E+03   -0.51862E+04   -0.49343E+04  2952   0.267E+02
DAV:   4    -0.896678900460E+03   -0.15662E+04   -0.14445E+04  3280   0.141E+02
DAV:   5    -0.106558516343E+04   -0.16891E+03   -0.16758E+03  3840   0.596E+01    0.155E+02
RMM:   6    -0.874115683738E+03    0.19147E+03   -0.56464E+02  3180   0.303E+01    0.982E+01
RMM:   7    -0.936649403447E+03   -0.62534E+02   -0.10698E+03  3426   0.305E+01    0.122E+02
RMM:   8    -0.120230669233E+04   -0.26566E+03   -0.73760E+02  3017   0.466E+01    0.255E+02
RMM:   9    -0.155437711410E+04   -0.35207E+03   -0.95163E+02  3510   0.274E+01    0.349E+02
RMM:  10    -0.165405058584E+04   -0.99673E+02   -0.51261E+02  3303   0.244E+01    0.371E+02
RMM:  11    -0.136282991756E+04    0.29122E+03   -0.83013E+01  3203   0.114E+01    0.338E+02
RMM:  12    -0.912911614848E+03    0.44992E+03   -0.14633E+02  3214   0.132E+01    0.139E+02
RMM:  13    -0.867966056084E+03    0.44946E+02   -0.82529E+01  3237   0.948E+00    0.592E+01
RMM:  14    -0.864529100360E+03    0.34370E+01   -0.33301E+01  3076   0.814E+00    0.541E+01
RMM:  15    -0.874141259425E+03   -0.96122E+01   -0.43332E+01  3326   0.779E+00    0.500E+01
RMM:  16    -0.873766805660E+03    0.37445E+00   -0.10496E+01  3134   0.516E+00    0.424E+01
RMM:  17    -0.873120522405E+03    0.64628E+00   -0.11138E+01  3259   0.351E+00    0.392E+01
RMM:  18    -0.872384398939E+03    0.73612E+00   -0.70503E+00  3200   0.336E+00    0.357E+01
RMM:  19    -0.872383349751E+03    0.10492E-02   -0.32535E+00  3321   0.211E+00    0.336E+01
RMM:  20    -0.871704311852E+03    0.67904E+00   -0.26099E+00  3180   0.207E+00    0.336E+01
RMM:  21    -0.871162498596E+03    0.54181E+00   -0.15089E+00  3260   0.152E+00    0.311E+01
RMM:  22    -0.870994287478E+03    0.16821E+00   -0.19757E+00  3164   0.174E+00    0.297E+01
RMM:  23    -0.870958312218E+03    0.35975E-01   -0.10536E+00  3270   0.114E+00    0.293E+01
RMM:  24    -0.870937011004E+03    0.21301E-01   -0.24649E-01  3502   0.658E-01    0.299E+01
RMM:  25    -0.872006752550E+03   -0.10697E+01   -0.12480E+00  3175   0.136E+00    0.334E+01
RMM:  26    -0.871958220640E+03    0.48532E-01   -0.28546E-01  3285   0.688E-01    0.326E+01
RMM:  27    -0.872080302696E+03   -0.12208E+00   -0.10640E-01  3765   0.308E-01    0.350E+01
RMM:  28    -0.872070553676E+03    0.97490E-02   -0.39136E-02  3580   0.287E-01    0.321E+01
RMM:  29    -0.872093701736E+03   -0.23148E-01   -0.27758E-02  3541   0.209E-01    0.322E+01
RMM:  30    -0.872512705525E+03   -0.41900E+00   -0.40600E-02  3215   0.281E-01    0.358E+01
RMM:  31    -0.872477434191E+03    0.35271E-01   -0.18478E-02  3223   0.208E-01    0.355E+01
RMM:  32    -0.872479863020E+03   -0.24288E-02   -0.71127E-03  3436   0.121E-01    0.359E+01
RMM:  33    -0.872471000771E+03    0.88622E-02   -0.57293E-03  2994   0.881E-02    0.360E+01
RMM:  34    -0.872475712005E+03   -0.47112E-02   -0.25249E-03  2510   0.810E-02    0.360E+01
RMM:  35    -0.872457114729E+03    0.18597E-01   -0.23190E-03  2264   0.556E-02    0.356E+01
RMM:  36    -0.872757052471E+03   -0.29994E+00   -0.16823E-02  3074   0.192E-01    0.396E+01
RMM:  37    -0.872701360354E+03    0.55692E-01   -0.18848E-02  2827   0.265E-01    0.408E+01
RMM:  38    -0.872774058312E+03   -0.72698E-01   -0.55067E-03  2630   0.162E-01    0.434E+01
RMM:  39    -0.872907719394E+03   -0.13366E+00   -0.76085E-03  2844   0.154E-01    0.457E+01
RMM:  40    -0.872935183288E+03   -0.27464E-01   -0.30534E-03  2530   0.126E-01    0.458E+01
RMM:  41    -0.872938711598E+03   -0.35283E-02   -0.14132E-03  2187   0.817E-02    0.460E+01
RMM:  42    -0.873020915513E+03   -0.82204E-01   -0.14486E-03  2103   0.754E-02    0.463E+01
RMM:  43    -0.873022080384E+03   -0.11649E-02   -0.11452E-03  2078   0.728E-02    0.463E+01
RMM:  44    -0.873170919654E+03   -0.14884E+00   -0.35564E-03  2397   0.864E-02    0.465E+01
RMM:  45    -0.873164530236E+03    0.63894E-02   -0.11197E-03  1976   0.757E-02    0.465E+01
RMM:  46    -0.873322581849E+03   -0.15805E+00   -0.34839E-03  2560   0.956E-02    0.466E+01
RMM:  47    -0.873464640386E+03   -0.14206E+00   -0.46490E-03  2706   0.119E-01    0.467E+01
RMM:  48    -0.873458725318E+03    0.59151E-02   -0.87661E-04  1905   0.671E-02    0.467E+01
RMM:  49    -0.873636729804E+03   -0.17800E+00   -0.30171E-03  2634   0.731E-02    0.468E+01
RMM:  50    -0.873484128260E+03    0.15260E+00   -0.24390E-03  2394   0.859E-02    0.467E+01
RMM:  51    -0.865959413816E+03    0.75247E+01   -0.70469E+01  3167   0.835E+00    0.413E+01
RMM:  52    -0.866722248936E+03   -0.76284E+00   -0.73518E+00  2983   0.452E+00    0.425E+01
RMM:  53    -0.863871084476E+03    0.28512E+01   -0.36732E+00  3196   0.266E+00    0.377E+01
RMM:  54    -0.861942021948E+03    0.19291E+01   -0.41171E+00  3242   0.272E+00    0.381E+01
RMM:  55    -0.860222906745E+03    0.17191E+01   -0.19532E+00  3225   0.202E+00    0.386E+01
RMM:  56    -0.866448927173E+03   -0.62260E+01   -0.52325E+00  3287   0.295E+00    0.412E+01
RMM:  57    -0.865763701349E+03    0.68523E+00   -0.11838E+00  3016   0.210E+00    0.412E+01
RMM:  58    -0.866272110960E+03   -0.50841E+00   -0.22002E+00  3579   0.166E+00    0.476E+01
RMM:  59    -0.866382738542E+03   -0.11063E+00   -0.92188E-01  3049   0.187E+00    0.516E+01
RMM:  60    -0.866385112935E+03   -0.23744E-02   -0.54460E-01  3598   0.693E-01    0.518E+01
RMM:  61    -0.865997055622E+03    0.38806E+00   -0.40551E-01  3316   0.107E+00    0.521E+01
RMM:  62    -0.865532220368E+03    0.46484E+00   -0.22176E-01  3566   0.584E-01    0.514E+01
RMM:  63    -0.862639411698E+03    0.28928E+01   -0.74204E-01  3284   0.120E+00    0.480E+01
RMM:  64    -0.861210951930E+03    0.14285E+01   -0.96561E-01  3267   0.157E+00    0.490E+01
RMM:  65    -0.859753090886E+03    0.14579E+01   -0.62224E-01  3084   0.136E+00    0.487E+01
RMM:  66    -0.856696149527E+03    0.30569E+01   -0.18147E+00  3224   0.219E+00    0.510E+01
RMM:  67    -0.854938091005E+03    0.17581E+01   -0.93497E-01  3191   0.154E+00    0.518E+01
RMM:  68    -0.854742266816E+03    0.19582E+00   -0.24638E-01  3321   0.824E-01    0.516E+01
RMM:  69    -0.855377216669E+03   -0.63495E+00   -0.29990E-01  2934   0.106E+00    0.513E+01
RMM:  70    -0.853699902613E+03    0.16773E+01   -0.55466E-01  2789   0.160E+00    0.515E+01
RMM:  71    -0.853386882522E+03    0.31302E+00   -0.18503E+01  3133   0.652E+00    0.499E+01
RMM:  72    -0.852682697344E+03    0.70419E+00   -0.62174E+00  2997   0.309E+00    0.548E+01
RMM:  73    -0.851874803922E+03    0.80789E+00   -0.14068E+00  3321   0.158E+00    0.546E+01
RMM:  74    -0.849028169335E+03    0.28466E+01   -0.10657E+00  3173   0.169E+00    0.548E+01
RMM:  75    -0.839532979916E+03    0.94952E+01   -0.22170E+00  3152   0.260E+00    0.543E+01
RMM:  76    -0.842968161154E+03   -0.34352E+01   -0.82059E+00  3138   0.463E+00    0.380E+01
RMM:  77    -0.839267006816E+03    0.37012E+01   -0.47846E+00  3292   0.318E+00    0.326E+01
RMM:  78    -0.841996739896E+03   -0.27297E+01   -0.16949E+00  3312   0.199E+00    0.283E+01
RMM:  79    -0.846248043000E+03   -0.42513E+01   -0.12015E+00  3186   0.178E+00    0.276E+01
RMM:  80    -0.849580326667E+03   -0.33323E+01   -0.12197E+00  3194   0.164E+00    0.340E+01
RMM:  81    -0.852078666423E+03   -0.24983E+01   -0.12319E+01  3185   0.475E+00    0.314E+01
RMM:  82    -0.852709312252E+03   -0.63065E+00   -0.32729E+00  2972   0.356E+00    0.332E+01
RMM:  83    -0.852741528551E+03   -0.32216E-01   -0.21404E+00  3578   0.136E+00    0.245E+01
RMM:  84    -0.855890282754E+03   -0.31488E+01   -0.10912E+00  3078   0.171E+00    0.398E+01
RMM:  85    -0.855310500804E+03    0.57978E+00   -0.67763E-01  3298   0.103E+00    0.300E+01
RMM:  86    -0.858814168062E+03   -0.35037E+01   -0.10924E+00  3063   0.177E+00    0.295E+01
RMM:  87    -0.859526049093E+03   -0.71188E+00   -0.60130E-01  3205   0.932E-01    0.297E+01
RMM:  88    -0.859651946480E+03   -0.12590E+00   -0.93254E-01  3165   0.118E+00    0.277E+01
RMM:  89    -0.859742532825E+03   -0.90586E-01   -0.19784E-01  2940   0.614E-01    0.278E+01
RMM:  90    -0.859972265790E+03   -0.22973E+00   -0.21919E-01  3224   0.529E-01    0.281E+01
RMM:  91    -0.861374664375E+03   -0.14024E+01   -0.13254E+00  3140   0.161E+00    0.262E+01
RMM:  92    -0.860010564474E+03    0.13641E+01   -0.14657E+00  3187   0.147E+00    0.223E+01
RMM:  93    -0.861519534925E+03   -0.15090E+01   -0.70919E-01  3141   0.117E+00    0.230E+01
RMM:  94    -0.861032520829E+03    0.48701E+00   -0.20943E+00  3169   0.167E+00    0.175E+01
RMM:  95    -0.859779793675E+03    0.12527E+01   -0.11873E+00  3137   0.143E+00    0.163E+01
RMM:  96    -0.859448745752E+03    0.33105E+00   -0.19427E+00  3182   0.154E+00    0.191E+01
RMM:  97    -0.859684221524E+03   -0.23548E+00   -0.26468E-01  2655   0.962E-01    0.185E+01
RMM:  98    -0.859976195483E+03   -0.29197E+00   -0.25035E-01  3287   0.494E-01    0.184E+01
RMM:  99    -0.860336154494E+03   -0.35996E+00   -0.52661E-01  3048   0.786E-01    0.180E+01
RMM: 100    -0.860474964086E+03   -0.13881E+00   -0.35100E-01  3179   0.531E-01
   1 F= -.88115607E+03 E0= -.88115551E+03  d E =-.881156E+03  mag=     2.9087
       N       E                     dE             d eps       ncg     rms          rms(c)
DAV:   1    -0.869677346598E+03   -0.93412E+01   -0.54395E+01  3280   0.100E+01    0.954E+01
RMM:   2    -0.321478972340E+04   -0.23451E+04   -0.33037E+03  3944   0.987E+01    0.408E+02
RMM:   3    -0.140435087720E+04    0.18104E+04   -0.77732E+02  3327   0.615E+01    0.160E+02
RMM:   4    -0.122643862223E+04    0.17791E+03   -0.71376E+02  3242   0.632E+01    0.269E+02
RMM:   5    -0.102149056351E+04    0.20495E+03   -0.18014E+02  3225   0.281E+01    0.942E+01
RMM:   6    -0.958569222550E+03    0.62921E+02   -0.21844E+02  3744   0.200E+01    0.518E+01
RMM:   7    -0.917769149311E+03    0.40800E+02   -0.52671E+01  3402   0.121E+01    0.394E+01
RMM:   8    -0.900943802537E+03    0.16825E+02   -0.30859E+01  3459   0.751E+00    0.298E+01
RMM:   9    -0.890290214067E+03    0.10654E+02   -0.21760E+01  3173   0.956E+00    0.265E+01
RMM:  10    -0.879670739586E+03    0.10619E+02   -0.26391E+01  3419   0.676E+00    0.234E+01
RMM:  11    -0.879064209625E+03    0.60653E+00   -0.48591E+00  2988   0.548E+00    0.207E+01
RMM:  12    -0.878682849766E+03    0.38136E+00   -0.16632E+00  3618   0.133E+00    0.189E+01
RMM:  13    -0.876710013857E+03    0.19728E+01   -0.20511E+00  3071   0.230E+00    0.169E+01
RMM:  14    -0.874882391950E+03    0.18276E+01   -0.14373E+00  3465   0.136E+00    0.171E+01
RMM:  15    -0.871083858349E+03    0.37985E+01   -0.19656E+00  3267   0.173E+00    0.152E+01
RMM:  16    -0.868723306831E+03    0.23606E+01   -0.15206E+00  3346   0.147E+00    0.138E+01
RMM:  17    -0.865238318191E+03    0.34850E+01   -0.29910E+00  3201   0.217E+00    0.148E+01
RMM:  18    -0.864915569379E+03    0.32275E+00   -0.10291E+00  3095   0.123E+00    0.137E+01
RMM:  19    -0.864286533045E+03    0.62904E+00   -0.59192E-01  3173   0.907E-01    0.129E+01
RMM:  20    -0.863852381852E+03    0.43415E+00   -0.38912E-01  3234   0.777E-01    0.128E+01
RMM:  21    -0.863457990638E+03    0.39439E+00   -0.36997E-01  3214   0.639E-01    0.146E+01
RMM:  22    -0.863095412331E+03    0.36258E+00   -0.15839E-01  3343   0.461E-01    0.125E+01
RMM:  23    -0.863112680813E+03   -0.17268E-01   -0.14384E-01  3517   0.251E-01    0.126E+01
RMM:  24    -0.862993988589E+03    0.11869E+00   -0.41223E-02  3339   0.262E-01    0.116E+01
RMM:  25    -0.863054752504E+03   -0.60764E-01   -0.74776E-02  3173   0.288E-01    0.135E+01
RMM:  26    -0.862652380553E+03    0.40237E+00   -0.81176E-02  3055   0.405E-01    0.115E+01
RMM:  27    -0.862956238357E+03   -0.30386E+00   -0.71373E-02  3150   0.294E-01    0.135E+01
RMM:  28    -0.862988791919E+03   -0.32554E-01   -0.39211E-02  3076   0.302E-01    0.123E+01
RMM:  29    -0.862918772164E+03    0.70020E-01   -0.23275E-02  3116   0.201E-01    0.119E+01
RMM:  30    -0.862844944594E+03    0.73828E-01   -0.17287E-02  2925   0.195E-01    0.130E+01
RMM:  31    -0.862895632104E+03   -0.50688E-01   -0.11273E-02  2882   0.174E-01    0.136E+01
RMM:  32    -0.862951696405E+03   -0.56064E-01   -0.61823E-03  2791   0.120E-01    0.138E+01
RMM:  33    -0.862993803147E+03   -0.42107E-01   -0.80605E-03  2852   0.147E-01    0.135E+01
RMM:  34    -0.863023728690E+03   -0.29926E-01   -0.24037E-02  3040   0.211E-01    0.135E+01
RMM:  35    -0.862975187756E+03    0.48541E-01   -0.29403E-02  3072   0.230E-01    0.147E+01
RMM:  36    -0.862948187306E+03    0.27000E-01   -0.92401E-03  2871   0.158E-01    0.150E+01
RMM:  37    -0.862880333380E+03    0.67854E-01   -0.37443E-03  2578   0.912E-02    0.144E+01
RMM:  38    -0.862907041094E+03   -0.26708E-01   -0.13035E-03  2056   0.687E-02    0.146E+01
RMM:  39    -0.862832482604E+03    0.74558E-01   -0.32993E-03  2723   0.861E-02    0.139E+01
RMM:  40    -0.862859634370E+03   -0.27152E-01   -0.53524E-02  2902   0.326E-01    0.210E+01
RMM:  41    -0.862877411923E+03   -0.17778E-01   -0.71658E-02  3056   0.399E-01    0.220E+01
RMM:  42    -0.862744483973E+03    0.13293E+00   -0.40612E-02  2868   0.333E-01    0.217E+01
RMM:  43    -0.862573900844E+03    0.17058E+00   -0.24516E-02  3095   0.209E-01    0.201E+01
RMM:  44    -0.862567544329E+03    0.63565E-02   -0.85670E-03  2943   0.123E-01    0.193E+01
RMM:  45    -0.862626727234E+03   -0.59183E-01   -0.16485E-02  2867   0.203E-01    0.222E+01
RMM:  46    -0.862417926952E+03    0.20880E+00   -0.71092E-02  2853   0.423E-01    0.208E+01
RMM:  47    -0.863437336667E+03   -0.10194E+01   -0.36785E+01  3340   0.579E+00    0.300E+01
RMM:  48    -0.861853883568E+03    0.15835E+01   -0.64735E+00  2724   0.389E+00    0.259E+01
RMM:  49    -0.861617824076E+03    0.23606E+00   -0.35590E+00  3085   0.167E+00    0.238E+01
RMM:  50    -0.861721050955E+03   -0.10323E+00   -0.76540E-01  2942   0.122E+00    0.232E+01
RMM:  51    -0.861877372022E+03   -0.15632E+00   -0.38631E-01  3227   0.395E-01    0.229E+01
RMM:  52    -0.861604814781E+03    0.27256E+00   -0.12600E+00  2849   0.151E+00    0.222E+01
RMM:  53    -0.861692260632E+03   -0.87446E-01   -0.60093E-01  2879   0.486E-01    0.221E+01
RMM:  54    -0.861722853588E+03   -0.30593E-01   -0.27411E-01  2781   0.271E-01    0.219E+01
RMM:  55    -0.861449980414E+03    0.27287E+00   -0.39650E+00  2803   0.320E+00    0.197E+01
RMM:  56    -0.862089314680E+03   -0.63933E+00   -0.19483E+00  3144   0.991E-01    0.208E+01
RMM:  57    -0.862622028817E+03   -0.53271E+00   -0.63905E-01  3052   0.958E-01    0.208E+01
RMM:  58    -0.862254872157E+03    0.36716E+00   -0.23701E-01  3115   0.533E-01    0.200E+01
RMM:  59    -0.862506366873E+03   -0.25149E+00   -0.10456E-01  3060   0.438E-01    0.205E+01
RMM:  60    -0.862313498085E+03    0.19287E+00   -0.54082E-02  3127   0.332E-01    0.186E+01
RMM:  61    -0.862439553513E+03   -0.12606E+00   -0.51534E-02  3113   0.324E-01    0.187E+01
RMM:  62    -0.861307620775E+03    0.11319E+01   -0.24296E+00  2794   0.236E+00    0.222E+01
RMM:  63    -0.861491619305E+03   -0.18400E+00   -0.82387E-01  3027   0.716E-01    0.229E+01
RMM:  64    -0.861653961952E+03   -0.16234E+00   -0.30333E-01  2922   0.675E-01    0.274E+01
RMM:  65    -0.861863880430E+03   -0.20992E+00   -0.36212E-01  3118   0.617E-01    0.233E+01
RMM:  66    -0.861867148386E+03   -0.32680E-02   -0.10823E-01  2957   0.376E-01    0.225E+01
RMM:  67    -0.862140902733E+03   -0.27375E+00   -0.54257E-01  2903   0.658E-01    0.214E+01
RMM:  68    -0.862245521426E+03   -0.10462E+00   -0.28697E-01  3080   0.470E-01    0.221E+01
RMM:  69    -0.862282893229E+03   -0.37372E-01   -0.44067E-02  3056   0.247E-01    0.219E+01
RMM:  70    -0.862374959423E+03   -0.92066E-01   -0.94775E-02  2808   0.265E-01    0.252E+01
RMM:  71    -0.862497751508E+03   -0.12279E+00   -0.39240E-02  3034   0.207E-01    0.266E+01
RMM:  72    -0.862386799150E+03    0.11095E+00   -0.83258E-01  2986   0.920E-01    0.260E+01
RMM:  73    -0.862487876677E+03   -0.10108E+00   -0.46930E-01  2986   0.363E-01    0.259E+01
RMM:  74    -0.862544223296E+03   -0.56347E-01   -0.58558E-02  2897   0.259E-01    0.255E+01
RMM:  75    -0.862783863992E+03   -0.23964E+00   -0.11138E-01  3077   0.297E-01    0.295E+01
RMM:  76    -0.862930571077E+03   -0.14671E+00   -0.13235E-01  2817   0.426E-01    0.280E+01
RMM:  77    -0.861793106234E+03    0.11375E+01   -0.36753E-01  2865   0.897E-01    0.209E+01
RMM:  78    -0.861888173397E+03   -0.95067E-01   -0.57748E-01  3052   0.565E-01    0.238E+01
RMM:  79    -0.861899139038E+03   -0.10966E-01   -0.37688E-02  2968   0.202E-01    0.240E+01
RMM:  80    -0.861867247443E+03    0.31892E-01   -0.63498E-02  2978   0.341E-01    0.234E+01
RMM:  81    -0.861764137281E+03    0.10311E+00   -0.16252E-01  3068   0.344E-01    0.231E+01
RMM:  82    -0.862052368756E+03   -0.28823E+00   -0.11212E-01  2807   0.470E-01    0.247E+01
RMM:  83    -0.862127898189E+03   -0.75529E-01   -0.11538E-01  3019   0.327E-01    0.254E+01
RMM:  84    -0.862088641224E+03    0.39257E-01   -0.10177E-02  2697   0.147E-01    0.255E+01
RMM:  85    -0.862156598984E+03   -0.67958E-01   -0.14569E-02  2860   0.127E-01    0.252E+01
RMM:  86    -0.861889389458E+03    0.26721E+00   -0.66036E-02  2783   0.283E-01    0.286E+01
RMM:  87    -0.860762969196E+03    0.11264E+01   -0.29922E+00  2921   0.206E+00    0.243E+01
RMM:  88    -0.860974468763E+03   -0.21150E+00   -0.12716E+00  3130   0.759E-01    0.242E+01
RMM:  89    -0.861386532192E+03   -0.41206E+00   -0.55726E-01  2929   0.526E-01    0.250E+01
RMM:  90    -0.860747515287E+03    0.63902E+00   -0.11847E+00  3144   0.765E-01    0.257E+01
RMM:  91    -0.860761891500E+03   -0.14376E-01   -0.24693E-01  2871   0.361E-01    0.259E+01
RMM:  92    -0.860167116126E+03    0.59478E+00   -0.72170E-01  3111   0.998E-01    0.224E+01
RMM:  93    -0.860486160483E+03   -0.31904E+00   -0.29852E-01  3044   0.722E-01    0.226E+01
RMM:  94    -0.861356799097E+03   -0.87064E+00   -0.14370E+00  2996   0.159E+00    0.240E+01
RMM:  95    -0.861937192895E+03   -0.58039E+00   -0.12353E+00  3085   0.780E-01    0.293E+01
RMM:  96    -0.862082102315E+03   -0.14491E+00   -0.10397E-01  2974   0.453E-01    0.287E+01
RMM:  97    -0.861973850193E+03    0.10825E+00   -0.54023E-01  3039   0.964E-01    0.304E+01
RMM:  98    -0.861902510412E+03    0.71340E-01   -0.32102E-01  3032   0.682E-01    0.309E+01
RMM:  99    -0.861834880260E+03    0.67630E-01   -0.10474E-01  3012   0.304E-01    0.309E+01
RMM: 100    -0.861928627977E+03   -0.93748E-01   -0.26442E-02  2877   0.202E-01
   2 F= -.88261468E+03 E0= -.88260238E+03  d E =-.145861E+01  mag=     1.5732
       N       E                     dE             d eps       ncg     rms          rms(c)
DAV:   1    -0.861498293268E+03    0.33659E+00   -0.24126E+02  2704   0.217E+01    0.309E+01
RMM:   2    -0.975140108831E+03   -0.11364E+03   -0.17575E+02  3726   0.152E+01    0.122E+02
RMM:   3    -0.908339685203E+03    0.66800E+02   -0.80879E+01  3209   0.165E+01    0.127E+02
RMM:   4    -0.875232275625E+03    0.33107E+02   -0.22767E+01  3223   0.770E+00    0.272E+01
RMM:   5    -0.867886034583E+03    0.73462E+01   -0.11076E+01  3087   0.508E+00    0.189E+01
RMM:   6    -0.864855004748E+03    0.30310E+01   -0.61783E+00  3064   0.346E+00    0.150E+01
RMM:   7    -0.862538566580E+03    0.23164E+01   -0.11332E+01  3158   0.408E+00    0.170E+01
RMM:   8    -0.861475569542E+03    0.10630E+01   -0.86871E+00  3123   0.373E+00    0.849E+00
RMM:   9    -0.861771704506E+03   -0.29613E+00   -0.23175E+00  3191   0.161E+00    0.772E+00
RMM:  10    -0.860925140166E+03    0.84656E+00   -0.15609E+00  2903   0.183E+00    0.645E+00
RMM:  11    -0.860821667832E+03    0.10347E+00   -0.46721E-01  3282   0.797E-01    0.573E+00
RMM:  12    -0.860539389662E+03    0.28228E+00   -0.58218E-01  3196   0.839E-01    0.534E+00
RMM:  13    -0.860523466066E+03    0.15924E-01   -0.91126E-01  3032   0.131E+00    0.108E+01
RMM:  14    -0.860609947408E+03   -0.86481E-01   -0.39845E-01  3194   0.707E-01    0.109E+01
RMM:  15    -0.860567907573E+03    0.42040E-01   -0.14378E-01  3310   0.425E-01    0.999E+00
RMM:  16    -0.860596033216E+03   -0.28126E-01   -0.55108E-02  3516   0.271E-01    0.971E+00
RMM:  17    -0.860616946472E+03   -0.20913E-01   -0.27981E-02  3658   0.183E-01    0.979E+00
RMM:  18    -0.860631308497E+03   -0.14362E-01   -0.22278E-02  3184   0.207E-01    0.960E+00
RMM:  19    -0.860634030700E+03   -0.27222E-02   -0.92822E-03  3380   0.114E-01    0.964E+00
RMM:  20    -0.860647506883E+03   -0.13476E-01   -0.82741E-02  2881   0.276E-01    0.970E+00
RMM:  21    -0.860803881020E+03   -0.15637E+00   -0.41567E-01  3062   0.637E-01    0.936E+00
RMM:  22    -0.860803835621E+03    0.45399E-04   -0.25354E-01  3169   0.439E-01    0.932E+00
RMM:  23    -0.860793809625E+03    0.10026E-01   -0.29705E-01  3138   0.387E-01    0.907E+00
RMM:  24    -0.860750792070E+03    0.43018E-01   -0.37473E-01  3102   0.391E-01    0.784E+00
RMM:  25    -0.860723204180E+03    0.27588E-01   -0.13759E-01  3133   0.282E-01    0.758E+00
RMM:  26    -0.860724573753E+03   -0.13696E-02   -0.30376E-02  2570   0.130E-01    0.755E+00
RMM:  27    -0.860705706141E+03    0.18868E-01   -0.21351E-02  2943   0.146E-01    0.729E+00
RMM:  28    -0.860739091235E+03   -0.33385E-01   -0.20354E-01  2992   0.395E-01    0.736E+00
RMM:  29    -0.860712655313E+03    0.26436E-01   -0.25592E-01  3140   0.463E-01    0.835E+00
RMM:  30    -0.860742138147E+03   -0.29483E-01   -0.53891E-02  2954   0.232E-01    0.830E+00
RMM:  31    -0.860718297021E+03    0.23841E-01   -0.84111E-03  2552   0.753E-02    0.825E+00
RMM:  32    -0.860704990879E+03    0.13306E-01   -0.45608E-03  2292   0.657E-02    0.809E+00
RMM:  33    -0.860724710461E+03   -0.19720E-01   -0.53200E-02  2831   0.237E-01    0.979E+00
RMM:  34    -0.860713133305E+03    0.11577E-01   -0.18349E-02  2522   0.125E-01    0.998E+00
RMM:  35    -0.860714080349E+03   -0.94704E-03   -0.30238E-03  2030   0.701E-02    0.101E+01
RMM:  36    -0.860736452577E+03   -0.22372E-01   -0.27441E-02  2849   0.173E-01    0.112E+01
RMM:  37    -0.860727487197E+03    0.89654E-02   -0.99974E-03  2275   0.727E-02    0.113E+01
RMM:  38    -0.860732902086E+03   -0.54149E-02   -0.24014E-03  1935   0.593E-02    0.114E+01
RMM:  39    -0.860745187917E+03   -0.12286E-01   -0.14335E-03  1870   0.524E-02    0.115E+01
RMM:  40    -0.860760039273E+03   -0.14851E-01   -0.27530E-03  1915   0.571E-02    0.117E+01
RMM:  41    -0.860746808975E+03    0.13230E-01   -0.57938E-04  1551   0.419E-02    0.116E+01
RMM:  42    -0.860718054884E+03    0.28754E-01   -0.25927E-02  2832   0.167E-01    0.115E+01
RMM:  43    -0.860713968576E+03    0.40863E-02   -0.87786E-03  2287   0.693E-02    0.115E+01
RMM:  44    -0.860714320539E+03   -0.35196E-03   -0.12670E-03  1625   0.415E-02    0.115E+01
RMM:  45    -0.860698250633E+03    0.16070E-01   -0.41474E-03  1962   0.666E-02    0.112E+01
RMM:  46    -0.860705790558E+03   -0.75399E-02   -0.17336E-03  1572   0.326E-02    0.113E+01
RMM:  47    -0.860885583912E+03   -0.17979E+00   -0.31749E-01  2894   0.794E-01    0.116E+01
RMM:  48    -0.860798929492E+03    0.86654E-01   -0.23239E-01  3062   0.434E-01    0.125E+01
RMM:  49    -0.860774304579E+03    0.24625E-01   -0.77421E-02  2966   0.218E-01    0.125E+01
RMM:  50    -0.860772551704E+03    0.17529E-02   -0.18100E-02  2589   0.100E-01    0.127E+01
RMM:  51    -0.860777874701E+03   -0.53230E-02   -0.29991E-03  2379   0.628E-02    0.127E+01
RMM:  52    -0.860792212730E+03   -0.14338E-01   -0.26662E-01  3038   0.519E-01    0.118E+01
RMM:  53    -0.861070574323E+03   -0.27836E+00   -0.19660E-01  2871   0.484E-01    0.136E+01
RMM:  54    -0.860959813098E+03    0.11076E+00   -0.28530E-02  2833   0.185E-01    0.132E+01
RMM:  55    -0.860890877522E+03    0.68936E-01   -0.59807E-02  2955   0.246E-01    0.115E+01
RMM:  56    -0.860869673681E+03    0.21204E-01   -0.28941E-02  3021   0.190E-01    0.106E+01
RMM:  57    -0.860901278549E+03   -0.31605E-01   -0.63141E-02  2953   0.323E-01    0.113E+01
RMM:  58    -0.860890524589E+03    0.10754E-01   -0.31074E-02  2605   0.139E-01    0.115E+01
RMM:  59    -0.860883685246E+03    0.68393E-02   -0.25268E-03  2241   0.754E-02    0.115E+01
RMM:  60    -0.860869816749E+03    0.13868E-01   -0.13528E-03  1851   0.603E-02    0.114E+01
RMM:  61    -0.860870686459E+03   -0.86971E-03   -0.12542E-02  2823   0.127E-01    0.116E+01
RMM:  62    -0.860456072364E+03    0.41461E+00   -0.22046E-01  3112   0.482E-01    0.735E+00
RMM:  63    -0.860443658452E+03    0.12414E-01   -0.11493E-01  3038   0.362E-01    0.407E+00
RMM:  64    -0.860476826602E+03   -0.33168E-01   -0.10827E-01  3094   0.329E-01    0.381E+00
RMM:  65    -0.860499956329E+03   -0.23130E-01   -0.75557E-02  2967   0.223E-01    0.419E+00
RMM:  66    -0.860491887319E+03    0.80690E-02   -0.21408E-02  2842   0.149E-01    0.296E+00
RMM:  67    -0.860500885904E+03   -0.89986E-02   -0.16639E-01  3053   0.344E-01    0.270E+00
RMM:  68    -0.860524372662E+03   -0.23487E-01   -0.17981E-01  3032   0.249E-01    0.381E+00
RMM:  69    -0.860518973847E+03    0.53988E-02   -0.97680E-03  2360   0.111E-01    0.378E+00
RMM:  70    -0.860518319520E+03    0.65433E-03   -0.43840E-03  2071   0.624E-02    0.379E+00
RMM:  71    -0.860518268437E+03    0.51083E-04   -0.93546E-04  1642   0.451E-02
   3 F= -.88121927E+03 E0= -.88121169E+03  d E =-.632004E-01  mag=     2.9959
       N       E                     dE             d eps       ncg     rms          rms(c)
DAV:   1    -0.860569683670E+03   -0.51364E-01   -0.27497E+01  2728   0.716E+00    0.483E+00
RMM:   2    -0.861788976853E+03   -0.12193E+01   -0.41589E+00  3050   0.341E+00    0.918E+00
RMM:   3    -0.860882740655E+03    0.90624E+00   -0.66114E-01  2821   0.159E+00    0.744E+00
RMM:   4    -0.860684052707E+03    0.19869E+00   -0.68761E-01  3356   0.811E-01    0.428E+00
RMM:   5    -0.860721374018E+03   -0.37321E-01   -0.10249E-01  3088   0.519E-01    0.348E+00
RMM:   6    -0.860805322858E+03   -0.83949E-01   -0.18155E-01  3244   0.519E-01    0.588E+00
RMM:   7    -0.860745142703E+03    0.60180E-01   -0.71673E-02  3366   0.294E-01    0.499E+00
RMM:   8    -0.860739777273E+03    0.53654E-02   -0.14282E-01  3168   0.387E-01    0.383E+00
RMM:   9    -0.860785888440E+03   -0.46111E-01   -0.78960E-02  2899   0.412E-01    0.434E+00
RMM:  10    -0.860770551912E+03    0.15337E-01   -0.24483E-02  3392   0.151E-01    0.423E+00
RMM:  11    -0.860767296792E+03    0.32551E-02   -0.60454E-03  3150   0.764E-02    0.422E+00
RMM:  12    -0.860767143379E+03    0.15341E-03   -0.19907E-03  2637   0.541E-02    0.422E+00
RMM:  13    -0.860758583945E+03    0.85594E-02   -0.16744E-03  2078   0.509E-02    0.410E+00
RMM:  14    -0.860756634350E+03    0.19496E-02   -0.22505E-03  1809   0.451E-02    0.405E+00
RMM:  15    -0.860758292440E+03   -0.16581E-02   -0.90203E-04  1622   0.428E-02    0.407E+00
RMM:  16    -0.860755837100E+03    0.24553E-02   -0.15800E-03  1542   0.463E-02    0.404E+00
RMM:  17    -0.860754928486E+03    0.90861E-03   -0.26582E-02  2130   0.109E-01    0.381E+00
RMM:  18    -0.860749202082E+03    0.57264E-02   -0.90464E-02  2989   0.151E-01    0.210E+00
RMM:  19    -0.860760949369E+03   -0.11747E-01   -0.25524E-02  2748   0.126E-01    0.135E+00
RMM:  20    -0.860768829812E+03   -0.78804E-02   -0.28921E-02  2782   0.108E-01    0.447E-01
RMM:  21    -0.860774576669E+03   -0.57469E-02   -0.69676E-03  2083   0.841E-02    0.766E-01
RMM:  22    -0.860775407902E+03   -0.83123E-03   -0.50807E-03  1804   0.609E-02    0.434E-01
RMM:  23    -0.860776608029E+03   -0.12001E-02   -0.11313E-02  1925   0.701E-02    0.615E-01
RMM:  24    -0.860777300600E+03   -0.69257E-03   -0.57235E-03  1961   0.577E-02    0.489E-01
RMM:  25    -0.860781546641E+03   -0.42460E-02   -0.11964E-02  2139   0.691E-02    0.110E+00
RMM:  26    -0.860788084975E+03   -0.65383E-02   -0.27861E-02  2321   0.104E-01    0.124E+00
RMM:  27    -0.860795089815E+03   -0.70048E-02   -0.58117E-02  2498   0.110E-01    0.869E-01
RMM:  28    -0.860795716695E+03   -0.62688E-03   -0.13037E-03  1722   0.469E-02    0.838E-01
RMM:  29    -0.860793131015E+03    0.25857E-02   -0.16641E-03  1627   0.528E-02    0.411E-01
RMM:  30    -0.860795367027E+03   -0.22360E-02   -0.13706E-03  1641   0.464E-02    0.601E-01
RMM:  31    -0.860796978974E+03   -0.16119E-02   -0.80255E-03  1820   0.682E-02    0.485E-01
RMM:  32    -0.860800268904E+03   -0.32899E-02   -0.20622E-02  1995   0.691E-02    0.445E-01
RMM:  33    -0.860802557674E+03   -0.22888E-02   -0.46645E-03  1739   0.587E-02    0.458E-01
RMM:  34    -0.860806091832E+03   -0.35342E-02   -0.18765E-02  1905   0.701E-02    0.475E-01
RMM:  35    -0.860804262947E+03    0.18289E-02   -0.14972E-03  1521   0.485E-02    0.509E-01
RMM:  36    -0.860808410747E+03   -0.41478E-02   -0.51209E-03  1748   0.626E-02    0.526E-01
RMM:  37    -0.860817465881E+03   -0.90551E-02   -0.58809E-02  2491   0.113E-01    0.441E-01
RMM:  38    -0.860821139502E+03   -0.36736E-02   -0.10897E-02  2022   0.684E-02    0.445E-01
RMM:  39    -0.860820353293E+03    0.78621E-03   -0.48875E-04  1511   0.374E-02    0.458E-01
RMM:  40    -0.860820446567E+03   -0.93274E-04   -0.24041E-04  1460   0.296E-02
   4 F= -.88151639E+03 E0= -.88150258E+03  d E =-.360325E+00  mag=     3.1674
       N       E                     dE             d eps       ncg     rms          rms(c)
DAV:   1    -0.860746455011E+03    0.73898E-01   -0.22997E+01  2488   0.648E+00    0.288E+00
RMM:   2    -0.861016976348E+03   -0.27052E+00   -0.16056E+00  2852   0.267E+00    0.578E+00
RMM:   3    -0.860941904125E+03    0.75072E-01   -0.50793E-01  3136   0.110E+00    0.572E+00
RMM:   4    -0.860894954903E+03    0.46949E-01   -0.12439E-01  3356   0.487E-01    0.427E+00
RMM:   5    -0.860988747268E+03   -0.93792E-01   -0.19770E-01  3333   0.474E-01    0.526E+00
RMM:   6    -0.860911847023E+03    0.76900E-01   -0.18529E-01  3229   0.461E-01    0.121E+00
RMM:   7    -0.860926684720E+03   -0.14838E-01   -0.74446E-02  3162   0.279E-01    0.701E-01
RMM:   8    -0.860938135597E+03   -0.11451E-01   -0.62679E-02  3365   0.194E-01    0.170E+00
RMM:   9    -0.860937049458E+03    0.10861E-02   -0.17129E-02  3387   0.119E-01    0.885E-01
RMM:  10    -0.860944952157E+03   -0.79027E-02   -0.23433E-02  3303   0.101E-01    0.403E-01
RMM:  11    -0.860953440094E+03   -0.84879E-02   -0.21112E-02  3120   0.104E-01    0.713E-01
RMM:  12    -0.860966033059E+03   -0.12593E-01   -0.86874E-02  2962   0.151E-01    0.132E+00
RMM:  13    -0.860966799107E+03   -0.76605E-03   -0.90857E-03  2451   0.664E-02    0.144E+00
RMM:  14    -0.860961177905E+03    0.56212E-02   -0.92659E-03  2176   0.905E-02    0.166E+00
RMM:  15    -0.860964103115E+03   -0.29252E-02   -0.25245E-03  1734   0.675E-02    0.154E+00
RMM:  16    -0.860968894583E+03   -0.47915E-02   -0.23157E-02  2751   0.109E-01    0.964E-01
RMM:  17    -0.860979729558E+03   -0.10835E-01   -0.84999E-02  2805   0.169E-01    0.417E-01
RMM:  18    -0.860987732401E+03   -0.80028E-02   -0.35574E-02  2672   0.135E-01    0.499E-01
RMM:  19    -0.860989382990E+03   -0.16506E-02   -0.14560E-02  2033   0.620E-02    0.616E-01
RMM:  20    -0.860989890485E+03   -0.50749E-03   -0.19370E-03  1664   0.501E-02    0.612E-01
RMM:  21    -0.860989240388E+03    0.65010E-03   -0.41648E-04  1451   0.375E-02    0.660E-01
RMM:  22    -0.860989369027E+03   -0.12864E-03   -0.21974E-04  1453   0.319E-02    0.653E-01
RMM:  23    -0.860990992493E+03   -0.16235E-02   -0.34869E-03  1873   0.507E-02    0.159E-01
RMM:  24    -0.860996133820E+03   -0.51413E-02   -0.31825E-02  2337   0.110E-01    0.374E-01
RMM:  25    -0.860996806137E+03   -0.67232E-03   -0.42203E-03  1821   0.554E-02    0.275E-01
RMM:  26    -0.860996678332E+03    0.12781E-03   -0.26364E-04  1471   0.367E-02    0.288E-01
RMM:  27    -0.860996124102E+03    0.55423E-03   -0.35494E-04  1451   0.288E-02    0.314E-01
RMM:  28    -0.860996138172E+03   -0.14070E-04   -0.15655E-04  1434   0.225E-02
   5 F= -.88168748E+03 E0= -.88167338E+03  d E =-.531418E+00  mag=     2.9584
       N       E                     dE             d eps       ncg     rms          rms(c)
DAV:   1    -0.861061247456E+03   -0.65123E-01   -0.74935E+00  2512   0.342E+00    0.162E+00
RMM:   2    -0.861367531534E+03   -0.30628E+00   -0.68243E-01  2982   0.147E+00    0.631E+00
RMM:   3    -0.861101076838E+03    0.26645E+00   -0.12889E-01  2887   0.653E-01    0.421E+00
RMM:   4    -0.861093458489E+03    0.76183E-02   -0.88477E-02  3314   0.288E-01    0.254E+00
RMM:   5    -0.861100475525E+03   -0.70170E-02   -0.16093E-02  2993   0.221E-01    0.123E+00
RMM:   6    -0.861107611439E+03   -0.71359E-02   -0.15740E-02  3286   0.146E-01    0.262E+00
RMM:   7    -0.861105759548E+03    0.18519E-02   -0.20696E-02  3113   0.158E-01    0.209E+00
RMM:   8    -0.861104634986E+03    0.11246E-02   -0.90332E-03  2989   0.985E-02    0.171E+00
RMM:   9    -0.861102624716E+03    0.20103E-02   -0.11346E-02  3005   0.902E-02    0.290E-01
RMM:  10    -0.861107500370E+03   -0.48757E-02   -0.25962E-03  2305   0.780E-02    0.171E-01
RMM:  11    -0.861108663175E+03   -0.11628E-02   -0.29099E-03  2183   0.674E-02    0.673E-01
RMM:  12    -0.861108021386E+03    0.64179E-03   -0.95525E-04  1792   0.449E-02    0.113E-01
RMM:  13    -0.861109361784E+03   -0.13404E-02   -0.29854E-03  1682   0.548E-02    0.351E-01
RMM:  14    -0.861110521332E+03   -0.11595E-02   -0.63653E-03  1889   0.594E-02    0.632E-01
RMM:  15    -0.861110117654E+03    0.40368E-03   -0.15117E-03  1676   0.542E-02    0.154E-01
RMM:  16    -0.861111053390E+03   -0.93574E-03   -0.20999E-03  1568   0.404E-02    0.162E-01
RMM:  17    -0.861111293414E+03   -0.24002E-03   -0.53456E-04  1519   0.345E-02    0.550E-02
RMM:  18    -0.861111670616E+03   -0.37720E-03   -0.11482E-03  1534   0.354E-02    0.114E-01
RMM:  19    -0.861111989180E+03   -0.31856E-03   -0.10430E-03  1547   0.352E-02    0.487E-02
RMM:  20    -0.861112477935E+03   -0.48876E-03   -0.26695E-03  1594   0.399E-02    0.489E-02
RMM:  21    -0.861112951552E+03   -0.47362E-03   -0.21850E-03  1596   0.414E-02    0.396E-02
RMM:  22    -0.861113581503E+03   -0.62995E-03   -0.52466E-03  1648   0.463E-02    0.153E-01
RMM:  23    -0.861114068123E+03   -0.48662E-03   -0.34385E-03  1626   0.478E-02    0.560E-02
RMM:  24    -0.861114642410E+03   -0.57429E-03   -0.47829E-03  1629   0.442E-02    0.103E-01
RMM:  25    -0.861115030339E+03   -0.38793E-03   -0.19736E-03  1567   0.410E-02    0.827E-02
RMM:  26    -0.861115518774E+03   -0.48844E-03   -0.36457E-03  1617   0.408E-02    0.968E-02
RMM:  27    -0.861115842665E+03   -0.32389E-03   -0.13523E-03  1535   0.367E-02    0.134E-01
RMM:  28    -0.861116197688E+03   -0.35502E-03   -0.28288E-03  1572   0.366E-02    0.147E-01
RMM:  29    -0.861116396810E+03   -0.19912E-03   -0.65423E-04  1476   0.304E-02    0.151E-01
RMM:  30    -0.861116664514E+03   -0.26770E-03   -0.14048E-03  1510   0.290E-02    0.134E-01
RMM:  31    -0.861116371027E+03    0.29349E-03   -0.36430E-04  1402   0.268E-02    0.133E-01
RMM:  32    -0.861116867512E+03   -0.49648E-03   -0.11466E-03  1474   0.313E-02    0.554E-02
RMM:  33    -0.861116747014E+03    0.12050E-03   -0.13672E-04  1380   0.245E-02    0.668E-02
RMM:  34    -0.861116980139E+03   -0.23313E-03   -0.42491E-04  1397   0.197E-02    0.554E-02
RMM:  35    -0.861117260348E+03   -0.28021E-03   -0.13526E-03  1468   0.216E-02    0.403E-02
RMM:  36    -0.861117503199E+03   -0.24285E-03   -0.63483E-04  1450   0.240E-02    0.328E-02
RMM:  37    -0.861117784782E+03   -0.28158E-03   -0.15150E-03  1478   0.233E-02    0.593E-02
RMM:  38    -0.861117838863E+03   -0.54081E-04   -0.13017E-04  1373   0.192E-02
   6 F= -.88180846E+03 E0= -.88179437E+03  d E =-.120972E+00  mag=     2.9464
       N       E                     dE             d eps       ncg     rms          rms(c)
DAV:   1    -0.860990266033E+03    0.12752E+00   -0.67666E+01  2496   0.105E+01    0.450E+00
RMM:   2    -0.862778334410E+03   -0.17881E+01   -0.49802E+00  2859   0.425E+00    0.170E+01
RMM:   3    -0.861292700406E+03    0.14856E+01   -0.15414E+00  3098   0.184E+00    0.382E+00
RMM:   4    -0.861319262760E+03   -0.26562E-01   -0.32903E-01  3203   0.838E-01    0.281E+00
RMM:   5    -0.861323857363E+03   -0.45946E-02   -0.14384E-01  3462   0.387E-01    0.509E+00
RMM:   6    -0.861353339389E+03   -0.29482E-01   -0.20825E-01  3207   0.574E-01    0.630E+00
RMM:   7    -0.861374755056E+03   -0.21416E-01   -0.50018E-02  3087   0.322E-01    0.689E+00
RMM:   8    -0.861355599470E+03    0.19156E-01   -0.25061E-02  3739   0.131E-01    0.677E+00
RMM:   9    -0.861294515563E+03    0.61084E-01   -0.39383E-02  3125   0.254E-01    0.472E+00
RMM:  10    -0.861334971764E+03   -0.40456E-01   -0.31166E-02  3299   0.173E-01    0.550E+00
RMM:  11    -0.861376367656E+03   -0.41396E-01   -0.55604E-01  3033   0.920E-01    0.552E+00
RMM:  12    -0.861400683939E+03   -0.24316E-01   -0.18851E-01  3034   0.346E-01    0.561E+00
RMM:  13    -0.861422193032E+03   -0.21509E-01   -0.44086E-02  3039   0.226E-01    0.662E+00
RMM:  14    -0.861391330175E+03    0.30863E-01   -0.70744E-02  2754   0.404E-01    0.740E+00
RMM:  15    -0.861381050480E+03    0.10280E-01   -0.17926E-02  2496   0.154E-01    0.694E+00
RMM:  16    -0.861328958495E+03    0.52092E-01   -0.93226E-02  2882   0.390E-01    0.416E+00
RMM:  17    -0.861343286474E+03   -0.14328E-01   -0.23896E-02  2708   0.157E-01    0.439E+00
RMM:  18    -0.861348831635E+03   -0.55452E-02   -0.92780E-03  2758   0.114E-01    0.487E+00
RMM:  19    -0.861339547969E+03    0.92837E-02   -0.12788E-02  2718   0.145E-01    0.453E+00
RMM:  20    -0.861328638832E+03    0.10909E-01   -0.37036E-02  2916   0.222E-01    0.429E+00
RMM:  21    -0.861328981391E+03   -0.34256E-03   -0.10685E-02  2544   0.925E-02    0.433E+00
RMM:  22    -0.861328099655E+03    0.88174E-03   -0.31194E-03  2429   0.669E-02    0.440E+00
RMM:  23    -0.861331071174E+03   -0.29715E-02   -0.45043E-03  2026   0.753E-02    0.452E+00
RMM:  24    -0.861317651956E+03    0.13419E-01   -0.32691E-02  2670   0.170E-01    0.392E+00
RMM:  25    -0.861303730885E+03    0.13921E-01   -0.34154E-02  2943   0.188E-01    0.210E+00
RMM:  26    -0.861308555117E+03   -0.48242E-02   -0.14122E-02  2729   0.123E-01    0.190E+00
RMM:  27    -0.861309325056E+03   -0.76994E-03   -0.15904E-03  1986   0.677E-02    0.187E+00
RMM:  28    -0.861311749299E+03   -0.24242E-02   -0.30049E-03  2194   0.817E-02    0.182E+00
RMM:  29    -0.861314721577E+03   -0.29723E-02   -0.15221E-02  2707   0.152E-01    0.195E+00
RMM:  30    -0.861315119750E+03   -0.39817E-03   -0.95176E-03  2371   0.860E-02    0.201E+00
RMM:  31    -0.861316190905E+03   -0.10712E-02   -0.67606E-04  1683   0.461E-02    0.206E+00
RMM:  32    -0.861316725096E+03   -0.53419E-03   -0.33446E-04  1537   0.314E-02    0.212E+00
RMM:  33    -0.861313536646E+03    0.31885E-02   -0.54527E-03  2631   0.939E-02    0.248E+00
RMM:  34    -0.861302107854E+03    0.11429E-01   -0.76460E-03  2607   0.119E-01    0.161E+00
RMM:  35    -0.861305436848E+03   -0.33290E-02   -0.40551E-03  2370   0.850E-02    0.231E+00
RMM:  36    -0.861298844810E+03    0.65920E-02   -0.61371E-03  2519   0.932E-02    0.143E+00
RMM:  37    -0.861298076792E+03    0.76802E-03   -0.93378E-03  2641   0.112E-01    0.138E+00
RMM:  38    -0.861295679369E+03    0.23974E-02   -0.19284E-02  2790   0.145E-01    0.123E+00
RMM:  39    -0.861296256324E+03   -0.57696E-03   -0.25358E-03  1941   0.500E-02    0.120E+00
RMM:  40    -0.861295675956E+03    0.58037E-03   -0.38102E-04  1650   0.334E-02    0.100E+00
RMM:  41    -0.861296229748E+03   -0.55379E-03   -0.18133E-04  1506   0.299E-02    0.100E+00
RMM:  42    -0.861296088112E+03    0.14164E-03   -0.16469E-04  1476   0.278E-02    0.111E+00
RMM:  43    -0.861294374678E+03    0.17134E-02   -0.14114E-03  1847   0.587E-02    0.107E+00
RMM:  44    -0.861294878685E+03   -0.50401E-03   -0.17790E-04  1470   0.322E-02    0.103E+00
RMM:  45    -0.861295084986E+03   -0.20630E-03   -0.15777E-04  1478   0.189E-02    0.104E+00
RMM:  46    -0.861295109227E+03   -0.24241E-04   -0.45258E-05  1440   0.173E-02
   7 F= -.88198360E+03 E0= -.88196949E+03  d E =-.296114E+00  mag=     2.9168
       N       E                     dE             d eps       ncg     rms          rms(c)
DAV:   1    -0.859892429977E+03    0.14027E+01   -0.27137E+02  2688   0.219E+01    0.709E+00
RMM:   2    -0.863472061872E+03   -0.35796E+01   -0.12883E+01  2728   0.752E+00    0.210E+01
RMM:   3    -0.861235901512E+03    0.22362E+01   -0.45269E+00  3191   0.293E+00    0.719E+00
RMM:   4    -0.861267596636E+03   -0.31695E-01   -0.75934E-01  3230   0.133E+00    0.614E+00
RMM:   5    -0.861449081179E+03   -0.18148E+00   -0.13109E+00  3377   0.115E+00    0.901E+00
RMM:   6    -0.861314547721E+03    0.13453E+00   -0.45420E-01  3181   0.968E-01    0.823E+00
RMM:   7    -0.861322199951E+03   -0.76522E-02   -0.24635E-01  3659   0.380E-01    0.806E+00
RMM:   8    -0.861334137139E+03   -0.11937E-01   -0.55838E-02  3558   0.263E-01    0.791E+00
RMM:   9    -0.861360767726E+03   -0.26631E-01   -0.48489E-02  3758   0.185E-01    0.863E+00
RMM:  10    -0.861367877491E+03   -0.71098E-02   -0.22593E-02  3576   0.167E-01    0.872E+00
RMM:  11    -0.861369394518E+03   -0.15170E-02   -0.14799E-02  3632   0.930E-02    0.881E+00
RMM:  12    -0.861369228575E+03    0.16594E-03   -0.69903E-03  3125   0.923E-02    0.882E+00
RMM:  13    -0.861497073393E+03   -0.12784E+00   -0.24493E-02  3260   0.184E-01    0.107E+01
RMM:  14    -0.861583413818E+03   -0.86340E-01   -0.68447E-02  3116   0.286E-01    0.829E+00
RMM:  15    -0.861610991045E+03   -0.27577E-01   -0.16029E-02  3110   0.169E-01    0.832E+00
RMM:  16    -0.861456445292E+03    0.15455E+00   -0.44317E-01  2972   0.893E-01    0.662E+00
RMM:  17    -0.861238551206E+03    0.21789E+00   -0.15714E+00  3119   0.144E+00    0.920E+00
RMM:  18    -0.861265380355E+03   -0.26829E-01   -0.27267E-01  2821   0.594E-01    0.845E+00
RMM:  19    -0.861277592019E+03   -0.12212E-01   -0.76072E-02  3025   0.328E-01    0.829E+00
RMM:  20    -0.861280686025E+03   -0.30940E-02   -0.39816E-02  3006   0.237E-01    0.812E+00
RMM:  21    -0.861171832840E+03    0.10885E+00   -0.78802E-02  3076   0.342E-01    0.625E+00
RMM:  22    -0.861121702981E+03    0.50130E-01   -0.12195E-01  3106   0.354E-01    0.395E+00
RMM:  23    -0.861217484294E+03   -0.95781E-01   -0.56925E-02  2965   0.304E-01    0.538E+00
RMM:  24    -0.861309133395E+03   -0.91649E-01   -0.29636E-02  3031   0.191E-01    0.671E+00
RMM:  25    -0.861288427619E+03    0.20706E-01   -0.54230E-03  2458   0.116E-01    0.669E+00
RMM:  26    -0.861277700975E+03    0.10727E-01   -0.23076E-03  2182   0.580E-02    0.668E+00
RMM:  27    -0.861265348098E+03    0.12353E-01   -0.46282E-04  1638   0.481E-02    0.659E+00
RMM:  28    -0.861350855606E+03   -0.85508E-01   -0.17095E-02  2884   0.166E-01    0.700E+00
RMM:  29    -0.861391430205E+03   -0.40575E-01   -0.20427E-02  2940   0.141E-01    0.721E+00
RMM:  30    -0.861392911866E+03   -0.14817E-02   -0.27483E-03  2261   0.672E-02    0.723E+00
RMM:  31    -0.861376116406E+03    0.16795E-01   -0.70004E-04  1797   0.465E-02    0.718E+00
RMM:  32    -0.861362196372E+03    0.13920E-01   -0.13936E-03  1857   0.512E-02    0.698E+00
RMM:  33    -0.861327561174E+03    0.34635E-01   -0.53305E-03  2369   0.896E-02    0.642E+00
RMM:  34    -0.861280042501E+03    0.47519E-01   -0.31944E-02  2815   0.216E-01    0.580E+00
RMM:  35    -0.861254621138E+03    0.25421E-01   -0.29437E-02  2864   0.159E-01    0.566E+00
RMM:  36    -0.861206461590E+03    0.48160E-01   -0.36465E-02  2932   0.196E-01    0.520E+00
RMM:  37    -0.861227055367E+03   -0.20594E-01   -0.32448E-03  2162   0.978E-02    0.523E+00
RMM:  38    -0.861321427648E+03   -0.94372E-01   -0.75883E-02  2864   0.312E-01    0.490E+00
RMM:  39    -0.861474979367E+03   -0.15355E+00   -0.26085E-01  3079   0.347E-01    0.901E+00
RMM:  40    -0.861435648972E+03    0.39330E-01   -0.11896E-02  2649   0.181E-01    0.839E+00
RMM:  41    -0.861415820278E+03    0.19829E-01   -0.76159E-02  2835   0.249E-01    0.787E+00
RMM:  42    -0.861425743757E+03   -0.99235E-02   -0.12142E-01  2938   0.231E-01    0.820E+00
RMM:  43    -0.861386004474E+03    0.39739E-01   -0.13096E-02  2744   0.124E-01    0.675E+00
RMM:  44    -0.861338544651E+03    0.47460E-01   -0.26543E-02  2832   0.197E-01    0.530E+00
RMM:  45    -0.861295946410E+03    0.42598E-01   -0.88162E-02  2873   0.354E-01    0.427E+00
RMM:  46    -0.861277988156E+03    0.17958E-01   -0.12318E-01  2822   0.226E-01    0.415E+00
RMM:  47    -0.861199480390E+03    0.78508E-01   -0.58541E-01  2862   0.748E-01    0.513E+00
RMM:  48    -0.861209976603E+03   -0.10496E-01   -0.24561E-01  2863   0.228E-01    0.506E+00
RMM:  49    -0.861211043534E+03   -0.10669E-02   -0.92204E-03  2370   0.115E-01    0.484E+00
RMM:  50    -0.861228853454E+03   -0.17810E-01   -0.29782E-03  2128   0.814E-02    0.499E+00
RMM:  51    -0.861221637877E+03    0.72156E-02   -0.32542E-03  2029   0.677E-02    0.492E+00
RMM:  52    -0.861222674588E+03   -0.10367E-02   -0.28146E-02  2343   0.156E-01    0.519E+00
RMM:  53    -0.861221920807E+03    0.75378E-03   -0.12619E-02  1873   0.560E-02    0.520E+00
RMM:  54    -0.861225294152E+03   -0.33733E-02   -0.68923E-04  1596   0.425E-02    0.525E+00
RMM:  55    -0.861209507218E+03    0.15787E-01   -0.59915E-02  2577   0.216E-01    0.501E+00
RMM:  56    -0.861228230253E+03   -0.18723E-01   -0.23284E-01  2860   0.296E-01    0.508E+00
RMM:  57    -0.860931685586E+03    0.29654E+00   -0.62604E-01  2994   0.847E-01    0.314E+00
RMM:  58    -0.860967614205E+03   -0.35929E-01   -0.45402E-01  2956   0.415E-01    0.394E+00
RMM:  59    -0.860955075586E+03    0.12539E-01   -0.54140E-02  2895   0.227E-01    0.412E+00
RMM:  60    -0.860954512077E+03    0.56351E-03   -0.22704E-02  2668   0.196E-01    0.377E+00
RMM:  61    -0.860948259898E+03    0.62522E-02   -0.36842E-02  2815   0.182E-01    0.385E+00
RMM:  62    -0.860941277220E+03    0.69827E-02   -0.10371E-01  2978   0.214E-01    0.399E+00
RMM:  63    -0.860936201149E+03    0.50761E-02   -0.16257E-02  2420   0.118E-01    0.383E+00
RMM:  64    -0.860929256960E+03    0.69442E-02   -0.17161E-02  2454   0.104E-01    0.357E+00
RMM:  65    -0.860936117080E+03   -0.68601E-02   -0.25891E-02  2554   0.128E-01    0.368E+00
RMM:  66    -0.860934061788E+03    0.20553E-02   -0.39244E-02  2705   0.133E-01    0.378E+00
RMM:  67    -0.860934559923E+03   -0.49814E-03   -0.97110E-02  2908   0.230E-01    0.390E+00
RMM:  68    -0.860930034060E+03    0.45259E-02   -0.35436E-02  2151   0.805E-02    0.386E+00
RMM:  69    -0.860939634780E+03   -0.96007E-02   -0.84940E-03  2150   0.942E-02    0.384E+00
RMM:  70    -0.860952379129E+03   -0.12744E-01   -0.70489E-02  2593   0.179E-01    0.395E+00
RMM:  71    -0.860957607080E+03   -0.52280E-02   -0.11640E-01  2892   0.271E-01    0.334E+00
RMM:  72    -0.860999127864E+03   -0.41521E-01   -0.61926E-02  2899   0.243E-01    0.487E+00
RMM:  73    -0.860996894044E+03    0.22338E-02   -0.37868E-02  2737   0.158E-01    0.465E+00
RMM:  74    -0.860998456005E+03   -0.15620E-02   -0.48182E-03  2274   0.617E-02    0.464E+00
RMM:  75    -0.861002074403E+03   -0.36184E-02   -0.41771E-03  1860   0.568E-02    0.470E+00
RMM:  76    -0.861003762691E+03   -0.16883E-02   -0.38329E-02  2583   0.181E-01    0.417E+00
RMM:  77    -0.861041956247E+03   -0.38194E-01   -0.12112E-01  2955   0.257E-01    0.495E+00
RMM:  78    -0.861062804363E+03   -0.20848E-01   -0.10825E-01  2913   0.231E-01    0.466E+00
RMM:  79    -0.861071662426E+03   -0.88581E-02   -0.28351E-02  2435   0.108E-01    0.453E+00
RMM:  80    -0.861072908454E+03   -0.12460E-02   -0.60895E-03  2070   0.565E-02    0.451E+00
RMM:  81    -0.861073647939E+03   -0.73949E-03   -0.17032E-03  1810   0.548E-02    0.440E+00
RMM:  82    -0.861053764291E+03    0.19884E-01   -0.56301E-02  2616   0.193E-01    0.424E+00
RMM:  83    -0.861061594644E+03   -0.78304E-02   -0.11189E-02  2187   0.992E-02    0.421E+00
RMM:  84    -0.861056791831E+03    0.48028E-02   -0.23741E-02  2465   0.950E-02    0.417E+00
RMM:  85    -0.861055281878E+03    0.15100E-02   -0.10932E-02  2116   0.723E-02    0.415E+00
RMM:  86    -0.861059212594E+03   -0.39307E-02   -0.86951E-04  1555   0.396E-02    0.415E+00
RMM:  87    -0.861347193145E+03   -0.28798E+00   -0.32487E+00  2915   0.147E+00    0.866E+00
RMM:  88    -0.861325145900E+03    0.22047E-01   -0.27329E-01  2883   0.471E-01    0.708E+00
RMM:  89    -0.861348049477E+03   -0.22904E-01   -0.68027E-01  2796   0.610E-01    0.924E+00
RMM:  90    -0.861316826233E+03    0.31223E-01   -0.77560E-02  2657   0.232E-01    0.825E+00
RMM:  91    -0.861321279983E+03   -0.44538E-02   -0.21775E-02  2344   0.117E-01    0.812E+00
RMM:  92    -0.861376857929E+03   -0.55578E-01   -0.60579E-01  2788   0.834E-01    0.105E+01
RMM:  93    -0.861518972190E+03   -0.14211E+00   -0.10118E+00  3081   0.719E-01    0.117E+01
RMM:  94    -0.861521037070E+03   -0.20649E-02   -0.57511E-02  2662   0.201E-01    0.113E+01
RMM:  95    -0.861475639510E+03    0.45398E-01   -0.89717E-02  2588   0.320E-01    0.105E+01
RMM:  96    -0.861478429777E+03   -0.27903E-02   -0.47360E-02  2391   0.109E-01    0.102E+01
RMM:  97    -0.861250194629E+03    0.22824E+00   -0.42909E-01  2716   0.763E-01    0.830E+00
RMM:  98    -0.861259724599E+03   -0.95300E-02   -0.15360E+00  3096   0.714E-01    0.578E+00
RMM:  99    -0.861213071485E+03    0.46653E-01   -0.84875E-01  2929   0.645E-01    0.467E+00
RMM: 100    -0.861225216934E+03   -0.12145E-01   -0.42444E-01  2974   0.346E-01
   8 F= -.88190970E+03 E0= -.88190970E+03  d E =-.222220E+00  mag=     3.1330
       N       E                     dE             d eps       ncg     rms          rms(c)
DAV:   1    -0.860793839151E+03    0.41923E+00   -0.15704E+02  2688   0.164E+01    0.596E+00
RMM:   2    -0.862334103820E+03   -0.15403E+01   -0.10194E+01  2855   0.598E+00    0.907E+00
RMM:   3    -0.861483851636E+03    0.85025E+00   -0.17825E+00  3036   0.213E+00    0.725E+00
RMM:   4    -0.861484300596E+03   -0.44896E-03   -0.15175E+00  3209   0.151E+00    0.630E+00
RMM:   5    -0.861468451846E+03    0.15849E-01   -0.30192E-01  3325   0.653E-01    0.589E+00
RMM:   6    -0.861379132278E+03    0.89320E-01   -0.12010E-01  3528   0.361E-01    0.571E+00
RMM:   7    -0.861494368862E+03   -0.11524E+00   -0.53533E-01  3231   0.749E-01    0.520E+00
RMM:   8    -0.861517845224E+03   -0.23476E-01   -0.16140E-01  3184   0.529E-01    0.498E+00
RMM:   9    -0.861518958148E+03   -0.11129E-02   -0.43896E-02  3416   0.238E-01    0.493E+00
RMM:  10    -0.861348683038E+03    0.17028E+00   -0.12273E-01  3156   0.381E-01    0.391E+00
RMM:  11    -0.861334620560E+03    0.14062E-01   -0.26996E-02  3132   0.206E-01    0.255E+00
RMM:  12    -0.861335810352E+03   -0.11898E-02   -0.15060E-02  3257   0.134E-01    0.180E+00
RMM:  13    -0.861335999648E+03   -0.18930E-03   -0.89890E-03  3254   0.105E-01    0.547E-01
RMM:  14    -0.861343370122E+03   -0.73705E-02   -0.11488E-02  3197   0.109E-01    0.153E+00
RMM:  15    -0.861342338723E+03    0.10314E-02   -0.30257E-03  2497   0.875E-02    0.134E+00
RMM:  16    -0.861342241106E+03    0.97617E-04   -0.82890E-04  2000   0.515E-02
   9 F= -.88202975E+03 E0= -.88201749E+03  d E =-.342267E+00  mag=     3.0644
       N       E                     dE             d eps       ncg     rms          rms(c)
DAV:   1    -0.861371590754E+03   -0.29252E-01   -0.13787E+01  2416   0.500E+00    0.121E+00
RMM:   2    -0.861423513285E+03   -0.51923E-01   -0.54763E-01  2924   0.156E+00    0.172E+00
RMM:   3    -0.861473304228E+03   -0.49791E-01   -0.13047E-01  3167   0.491E-01    0.438E+00
RMM:   4    -0.861430209878E+03    0.43094E-01   -0.32345E-02  3301   0.273E-01    0.249E+00
RMM:   5    -0.861439840141E+03   -0.96303E-02   -0.42648E-02  3401   0.211E-01    0.293E+00
RMM:   6    -0.861433655859E+03    0.61843E-02   -0.32762E-02  3152   0.243E-01    0.132E+00
RMM:   7    -0.861438900248E+03   -0.52444E-02   -0.97823E-03  3169   0.145E-01    0.176E+00
RMM:   8    -0.861433310043E+03    0.55902E-02   -0.64656E-03  3134   0.106E-01    0.516E-01
RMM:   9    -0.861436916831E+03   -0.36068E-02   -0.46649E-03  2926   0.872E-02    0.670E-01
RMM:  10    -0.861437426639E+03   -0.50981E-03   -0.30844E-03  2579   0.614E-02    0.794E-01
RMM:  11    -0.861436945526E+03    0.48111E-03   -0.24407E-03  2121   0.552E-02    0.226E-01
RMM:  12    -0.861438083644E+03   -0.11381E-02   -0.26948E-03  1814   0.516E-02    0.142E-01
RMM:  13    -0.861438806662E+03   -0.72302E-03   -0.26633E-03  1682   0.508E-02    0.932E-02
RMM:  14    -0.861439456666E+03   -0.65000E-03   -0.30927E-03  1688   0.510E-02    0.118E-01
RMM:  15    -0.861439893714E+03   -0.43705E-03   -0.21323E-03  1591   0.442E-02    0.133E-01
RMM:  16    -0.861440690293E+03   -0.79658E-03   -0.57200E-03  1753   0.582E-02    0.103E-01
RMM:  17    -0.861441841290E+03   -0.11510E-02   -0.11900E-02  1845   0.677E-02    0.117E-01
RMM:  18    -0.861442885466E+03   -0.10442E-02   -0.12100E-02  1961   0.758E-02    0.478E-02
RMM:  19    -0.861443592084E+03   -0.70662E-03   -0.58533E-03  1738   0.500E-02    0.795E-02
RMM:  20    -0.861444188515E+03   -0.59643E-03   -0.43089E-03  1644   0.520E-02    0.159E-01
RMM:  21    -0.861443359637E+03    0.82888E-03   -0.12046E-03  1545   0.517E-02    0.164E-01
RMM:  22    -0.861443681208E+03   -0.32157E-03   -0.15714E-04  1446   0.254E-02    0.119E-01
RMM:  23    -0.861444099232E+03   -0.41802E-03   -0.62295E-04  1463   0.288E-02    0.117E-01
RMM:  24    -0.861444609323E+03   -0.51009E-03   -0.25754E-03  1612   0.385E-02    0.467E-02
RMM:  25    -0.861444996728E+03   -0.38741E-03   -0.18355E-03  1571   0.341E-02    0.549E-02
RMM:  26    -0.861444758966E+03    0.23776E-03   -0.14919E-04  1442   0.269E-02    0.579E-02
RMM:  27    -0.861444769862E+03   -0.10896E-04   -0.62655E-05  1423   0.176E-02
  10 F= -.88212941E+03 E0= -.88211531E+03  d E =-.996553E-01  mag=     2.9837
       N       E                     dE             d eps       ncg     rms          rms(c)
DAV:   1    -0.861173775842E+03    0.27098E+00   -0.86957E+01  2320   0.126E+01    0.419E+00
RMM:   2    -0.862657058987E+03   -0.14833E+01   -0.49396E+00  2977   0.439E+00    0.141E+01
RMM:   3    -0.861563725605E+03    0.10933E+01   -0.12234E+00  3020   0.179E+00    0.435E+00
RMM:   4    -0.861623699879E+03   -0.59974E-01   -0.32920E-01  3434   0.645E-01    0.404E+00
RMM:   5    -0.861622514325E+03    0.11856E-02   -0.36701E-01  3281   0.743E-01    0.548E+00
RMM:   6    -0.861546717431E+03    0.75797E-01   -0.76723E-02  3140   0.423E-01    0.475E+00
RMM:   7    -0.861535137954E+03    0.11579E-01   -0.33997E-02  3525   0.179E-01    0.380E+00
RMM:   8    -0.861529682794E+03    0.54552E-02   -0.23960E-02  3476   0.160E-01    0.375E+00
RMM:   9    -0.861587944997E+03   -0.58262E-01   -0.73307E-02  3214   0.266E-01    0.513E+00
RMM:  10    -0.861586488361E+03    0.14566E-02   -0.15677E-01  3080   0.471E-01    0.337E+00
RMM:  11    -0.861585004418E+03    0.14839E-02   -0.27773E-02  2805   0.300E-01    0.324E+00
RMM:  12    -0.861552206726E+03    0.32798E-01   -0.17383E-02  3007   0.181E-01    0.303E+00
RMM:  13    -0.861535513414E+03    0.16693E-01   -0.16617E-02  3080   0.130E-01    0.187E+00
RMM:  14    -0.861534810197E+03    0.70322E-03   -0.95842E-03  2968   0.987E-02    0.881E-01
RMM:  15    -0.861537068380E+03   -0.22582E-02   -0.11020E-02  2905   0.106E-01    0.156E+00
RMM:  16    -0.861514618708E+03    0.22450E-01   -0.24187E-02  2838   0.142E-01    0.165E+00
RMM:  17    -0.861514807716E+03   -0.18901E-03   -0.11025E-02  2608   0.135E-01    0.269E+00
RMM:  18    -0.861511163048E+03    0.36447E-02   -0.29782E-03  2302   0.812E-02    0.237E+00
RMM:  19    -0.861511111530E+03    0.51518E-04   -0.46032E-04  1610   0.498E-02
  11 F= -.88218860E+03 E0= -.88217608E+03  d E =-.158845E+00  mag=     1.5503
       N       E                     dE             d eps       ncg     rms          rms(c)
DAV:   1    -0.861494310718E+03    0.16852E-01   -0.46467E+00  2632   0.291E+00    0.304E+00
RMM:   2    -0.862251282106E+03   -0.75697E+00   -0.20379E+00  3091   0.191E+00    0.591E+00
RMM:   3    -0.861666201098E+03    0.58508E+00   -0.32630E-01  2772   0.102E+00    0.441E+00
RMM:   4    -0.861523943653E+03    0.14226E+00   -0.46917E-01  3115   0.673E-01    0.227E+00
RMM:   5    -0.861546322571E+03   -0.22379E-01   -0.54315E-02  2602   0.438E-01    0.312E+00
RMM:   6    -0.861527580865E+03    0.18742E-01   -0.25543E-02  3022   0.188E-01    0.535E-01
RMM:   7    -0.861541381361E+03   -0.13800E-01   -0.60515E-03  2669   0.135E-01    0.237E+00
RMM:   8    -0.861542188437E+03   -0.80708E-03   -0.38144E-03  2617   0.111E-01    0.264E+00
RMM:   9    -0.861533505705E+03    0.86827E-02   -0.89295E-03  2563   0.152E-01    0.140E+00
RMM:  10    -0.861536042022E+03   -0.25363E-02   -0.79270E-03  2728   0.980E-02    0.131E+00
RMM:  11    -0.861534613013E+03    0.14290E-02   -0.34242E-03  2494   0.742E-02    0.364E-01
RMM:  12    -0.861536762750E+03   -0.21497E-02   -0.20531E-03  2314   0.638E-02    0.211E-01
RMM:  13    -0.861537654513E+03   -0.89176E-03   -0.14517E-03  1826   0.610E-02    0.452E-01
RMM:  14    -0.861538164332E+03   -0.50982E-03   -0.21023E-03  1685   0.510E-02    0.646E-01
RMM:  15    -0.861537949636E+03    0.21470E-03   -0.74211E-04  1650   0.418E-02    0.546E-01
RMM:  16    -0.861537893356E+03    0.56280E-04   -0.83731E-04  1659   0.409E-02
  12 F= -.88221703E+03 E0= -.88220388E+03  d E =-.187274E+00  mag=     2.0001
       N       E                     dE             d eps       ncg     rms          rms(c)
DAV:   1    -0.861538322148E+03   -0.37251E-03   -0.90702E-01  2624   0.129E+00    0.654E-01
RMM:   2    -0.861628357515E+03   -0.90035E-01   -0.97753E-02  3031   0.538E-01    0.563E+00
RMM:   3    -0.861526311815E+03    0.10205E+00   -0.33398E-02  2798   0.320E-01    0.964E-01
RMM:   4    -0.861545437383E+03   -0.19126E-01   -0.11619E-02  2936   0.150E-01    0.155E+00
RMM:   5    -0.861540043926E+03    0.53935E-02   -0.16194E-03  2235   0.820E-02    0.542E-01
RMM:   6    -0.861541716497E+03   -0.16726E-02   -0.18442E-03  2102   0.624E-02    0.249E-01
RMM:   7    -0.861543364252E+03   -0.16478E-02   -0.32401E-03  2105   0.612E-02    0.629E-01
RMM:   8    -0.861542416386E+03    0.94787E-03   -0.63837E-04  1660   0.505E-02    0.168E-01
RMM:   9    -0.861542969810E+03   -0.55342E-03   -0.52387E-04  1514   0.363E-02    0.968E-02
RMM:  10    -0.861543213385E+03   -0.24357E-03   -0.31044E-04  1522   0.308E-02    0.153E-01
RMM:  11    -0.861543305346E+03   -0.91961E-04   -0.42915E-04  1487   0.296E-02
  13 F= -.88222171E+03 E0= -.88220859E+03  d E =-.191958E+00  mag=     2.0000
       N       E                     dE             d eps       ncg     rms          rms(c)
DAV:   1    -0.861531564271E+03    0.11649E-01   -0.22970E+01  2304   0.635E+00    0.295E+00
RMM:   2    -0.862721018543E+03   -0.11895E+01   -0.21574E+00  2987   0.259E+00    0.148E+01
RMM:   3    -0.861595596296E+03    0.11254E+01   -0.64409E-01  2861   0.133E+00    0.288E+00
RMM:   4    -0.861693262666E+03   -0.97666E-01   -0.21176E-01  3261   0.497E-01    0.276E+00
RMM:   5    -0.861641739641E+03    0.51523E-01   -0.46105E-02  3166   0.303E-01    0.266E+00
RMM:   6    -0.861627455053E+03    0.14285E-01   -0.26721E-02  3443   0.158E-01    0.245E+00
RMM:   7    -0.861614422958E+03    0.13032E-01   -0.30185E-02  3281   0.210E-01    0.111E+00
RMM:   8    -0.861626619465E+03   -0.12197E-01   -0.72134E-03  3251   0.108E-01    0.190E+00
RMM:   9    -0.861622105035E+03    0.45144E-02   -0.12778E-02  3078   0.151E-01    0.139E+00
RMM:  10    -0.861629223338E+03   -0.71183E-02   -0.12079E-02  3061   0.112E-01    0.165E+00
RMM:  11    -0.861625436363E+03    0.37870E-02   -0.10063E-02  2997   0.125E-01    0.126E+00
RMM:  12    -0.861625207834E+03    0.22853E-03   -0.12483E-02  2878   0.119E-01    0.921E-01
RMM:  13    -0.861626617985E+03   -0.14102E-02   -0.11658E-02  2827   0.138E-01    0.648E-01
RMM:  14    -0.861628303224E+03   -0.16852E-02   -0.13049E-02  2718   0.117E-01    0.373E-01
RMM:  15    -0.861629819111E+03   -0.15159E-02   -0.32298E-03  2290   0.746E-02    0.291E-01
RMM:  16    -0.861630241017E+03   -0.42191E-03   -0.12553E-03  1766   0.518E-02    0.320E-01
RMM:  17    -0.861630596883E+03   -0.35587E-03   -0.59231E-04  1580   0.363E-02    0.421E-01
RMM:  18    -0.861630862251E+03   -0.26537E-03   -0.14531E-03  1759   0.537E-02    0.479E-01
RMM:  19    -0.861630116306E+03    0.74595E-03   -0.35974E-04  1514   0.414E-02    0.333E-01
RMM:  20    -0.861630055202E+03    0.61104E-04   -0.34712E-04  1508   0.293E-02
  14 F= -.88230590E+03 E0= -.88229699E+03  d E =-.841892E-01  mag=     2.0092
       N       E                     dE             d eps       ncg     rms          rms(c)
DAV:   1    -0.860919548166E+03    0.71057E+00   -0.20750E+02  2568   0.192E+01    0.354E+00
RMM:   2    -0.861600756041E+03   -0.68121E+00   -0.78706E+00  2789   0.596E+00    0.290E+00
RMM:   3    -0.861771550909E+03   -0.17079E+00   -0.18845E+00  3351   0.170E+00    0.253E+00
RMM:   4    -0.861765940709E+03    0.56102E-02   -0.42822E-01  3234   0.918E-01    0.197E+00
RMM:   5    -0.861785798521E+03   -0.19858E-01   -0.26967E-01  3513   0.524E-01    0.153E+00
RMM:   6    -0.861799317919E+03   -0.13519E-01   -0.11557E-01  3463   0.391E-01    0.114E+00
RMM:   7    -0.861801822238E+03   -0.25043E-02   -0.80222E-02  3498   0.304E-01    0.579E-01
RMM:   8    -0.861801641547E+03    0.18069E-03   -0.66121E-02  3474   0.281E-01    0.375E-01
RMM:   9    -0.861802905524E+03   -0.12640E-02   -0.21751E-02  3455   0.155E-01    0.332E-01
RMM:  10    -0.861803682608E+03   -0.77708E-03   -0.12827E-02  3451   0.128E-01    0.190E-01
RMM:  11    -0.861804823858E+03   -0.11412E-02   -0.10846E-02  3527   0.102E-01    0.144E-01
RMM:  12    -0.861805450829E+03   -0.62697E-03   -0.55357E-03  3493   0.808E-02    0.139E-01
RMM:  13    -0.861805607055E+03   -0.15623E-03   -0.34488E-03  2844   0.597E-02    0.104E-01
RMM:  14    -0.861805786979E+03   -0.17992E-03   -0.43300E-03  3025   0.744E-02    0.447E-02
RMM:  15    -0.861805991242E+03   -0.20426E-03   -0.14522E-03  2166   0.482E-02    0.391E-02
RMM:  16    -0.861806065671E+03   -0.74429E-04   -0.68558E-04  1620   0.433E-02
  15 F= -.88247437E+03 E0= -.88247437E+03  d E =-.252656E+00  mag=     2.0000
       N       E                     dE             d eps       ncg     rms          rms(c)
DAV:   1    -0.861795750834E+03    0.10240E-01   -0.16845E+01  2816   0.525E+00    0.785E-01
RMM:   2    -0.861846320205E+03   -0.50569E-01   -0.59286E-01  2858   0.159E+00    0.602E-01
RMM:   3    -0.861858794543E+03   -0.12474E-01   -0.14012E-01  3390   0.442E-01    0.540E-01
RMM:   4    -0.861858117409E+03    0.67713E-03   -0.24927E-02  3153   0.226E-01    0.430E-01
RMM:   5    -0.861859562695E+03   -0.14453E-02   -0.21228E-02  3408   0.148E-01    0.267E-01
RMM:   6    -0.861859443520E+03    0.11917E-03   -0.73469E-03  3272   0.972E-02    0.162E-01
RMM:   7    -0.861859770094E+03   -0.32657E-03   -0.68321E-03  3337   0.830E-02    0.995E-02
RMM:   8    -0.861859886366E+03   -0.11627E-03   -0.18051E-03  2292   0.526E-02    0.865E-02
RMM:   9    -0.861860000916E+03   -0.11455E-03   -0.13452E-03  2166   0.494E-02    0.666E-02
RMM:  10    -0.861860165494E+03   -0.16458E-03   -0.12341E-03  1889   0.446E-02    0.471E-02
RMM:  11    -0.861860342028E+03   -0.17653E-03   -0.90696E-04  1704   0.424E-02    0.338E-02
RMM:  12    -0.861860423216E+03   -0.81189E-04   -0.57618E-04  1532   0.408E-02
  16 F= -.88252677E+03 E0= -.88252677E+03  d E =-.524037E-01  mag=     2.0000
       N       E                     dE             d eps       ncg     rms          rms(c)
DAV:   1    -0.861857774217E+03    0.25678E-02   -0.69781E+00  2832   0.340E+00    0.489E-01
RMM:   2    -0.861878372144E+03   -0.20598E-01   -0.24067E-01  2830   0.102E+00    0.398E-01
RMM:   3    -0.861883660660E+03   -0.52885E-02   -0.59112E-02  3404   0.284E-01    0.355E-01
RMM:   4    -0.861883469034E+03    0.19163E-03   -0.11116E-02  3142   0.148E-01    0.288E-01
RMM:   5    -0.861884170861E+03   -0.70183E-03   -0.96624E-03  3346   0.100E-01    0.181E-01
RMM:   6    -0.861884182916E+03   -0.12055E-04   -0.37427E-03  3060   0.676E-02    0.106E-01
RMM:   7    -0.861884417557E+03   -0.23464E-03   -0.33324E-03  3146   0.593E-02    0.666E-02
RMM:   8    -0.861884481316E+03   -0.63758E-04   -0.86887E-04  1839   0.394E-02
  17 F= -.88254958E+03 E0= -.88254958E+03  d E =-.752118E-01  mag=     2.0000
       N       E                     dE             d eps       ncg     rms          rms(c)
DAV:   1    -0.861798585470E+03    0.85832E-01   -0.27935E+01  2400   0.681E+00    0.101E+00
RMM:   2    -0.861882574960E+03   -0.83989E-01   -0.99478E-01  2848   0.205E+00    0.841E-01
RMM:   3    -0.861903661683E+03   -0.21087E-01   -0.23519E-01  3374   0.575E-01    0.752E-01
RMM:   4    -0.861902271942E+03    0.13897E-02   -0.43104E-02  3198   0.296E-01    0.611E-01
RMM:   5    -0.861904834117E+03   -0.25622E-02   -0.37080E-02  3419   0.193E-01    0.404E-01
RMM:   6    -0.861904285708E+03    0.54841E-03   -0.11456E-02  3281   0.128E-01    0.229E-01
RMM:   7    -0.861904745321E+03   -0.45961E-03   -0.12875E-02  3380   0.111E-01    0.129E-01
RMM:   8    -0.861904854939E+03   -0.10962E-03   -0.27806E-03  2669   0.684E-02    0.113E-01
RMM:   9    -0.861904969628E+03   -0.11469E-03   -0.22105E-03  2742   0.523E-02    0.920E-02
RMM:  10    -0.861905163980E+03   -0.19435E-03   -0.19877E-03  2547   0.531E-02    0.568E-02
RMM:  11    -0.861905414216E+03   -0.25024E-03   -0.18333E-03  2169   0.439E-02    0.507E-02
RMM:  12    -0.861905444506E+03   -0.30290E-04   -0.34950E-04  1541   0.405E-02
  18 F= -.88256806E+03 E0= -.88256806E+03  d E =-.936922E-01  mag=     2.0000
       N       E                     dE             d eps       ncg     rms          rms(c)
DAV:   1    -0.861929102603E+03   -0.23688E-01   -0.84048E+00  2592   0.384E+00    0.729E-01
RMM:   2    -0.861957448329E+03   -0.28346E-01   -0.36994E-01  2825   0.129E+00    0.774E-01
RMM:   3    -0.861965434467E+03   -0.79861E-02   -0.86702E-02  3325   0.368E-01    0.721E-01
RMM:   4    -0.861965584455E+03   -0.14999E-03   -0.22024E-02  3221   0.195E-01    0.614E-01
RMM:   5    -0.861968809926E+03   -0.32255E-02   -0.26658E-02  3255   0.177E-01    0.416E-01
RMM:   6    -0.861968368434E+03    0.44149E-03   -0.55621E-03  2986   0.108E-01    0.314E-01
RMM:   7    -0.861966556040E+03    0.18124E-02   -0.12636E-02  3163   0.125E-01    0.147E-01
RMM:   8    -0.861966607721E+03   -0.51681E-04   -0.20764E-03  2478   0.697E-02    0.120E-01
RMM:   9    -0.861966605787E+03    0.19341E-05   -0.10452E-03  2217   0.384E-02    0.968E-02
RMM:  10    -0.861966641038E+03   -0.35251E-04   -0.10483E-03  2105   0.493E-02    0.635E-02
RMM:  11    -0.861966800078E+03   -0.15904E-03   -0.15511E-03  2250   0.431E-02    0.363E-02
RMM:  12    -0.861966903340E+03   -0.10326E-03   -0.52545E-04  1574   0.425E-02    0.316E-02
RMM:  13    -0.861966976914E+03   -0.73574E-04   -0.46526E-04  1437   0.344E-02
  19 F= -.88263080E+03 E0= -.88263080E+03  d E =-.627386E-01  mag=     2.0000
       N       E                     dE             d eps       ncg     rms          rms(c)
DAV:   1    -0.861968899910E+03   -0.19966E-02   -0.52513E+00  2448   0.304E+00    0.577E-01
RMM:   2    -0.861986874986E+03   -0.17975E-01   -0.22853E-01  2782   0.104E+00    0.639E-01
RMM:   3    -0.861992537889E+03   -0.56629E-02   -0.60133E-02  3410   0.302E-01    0.602E-01
RMM:   4    -0.861992724334E+03   -0.18645E-03   -0.15095E-02  3210   0.157E-01    0.522E-01
RMM:   5    -0.861994723358E+03   -0.19990E-02   -0.17337E-02  3320   0.142E-01    0.361E-01
RMM:   6    -0.861994928927E+03   -0.20557E-03   -0.47598E-03  3048   0.892E-02    0.270E-01
RMM:   7    -0.861993757530E+03    0.11714E-02   -0.71339E-03  3220   0.957E-02    0.141E-01
RMM:   8    -0.861993721397E+03    0.36133E-04   -0.18046E-03  2507   0.532E-02    0.114E-01
RMM:   9    -0.861993672039E+03    0.49358E-04   -0.66238E-04  1909   0.403E-02
  20 F= -.88265845E+03 E0= -.88265845E+03  d E =-.903905E-01  mag=     2.0000
       N       E                     dE             d eps       ncg     rms          rms(c)
DAV:   1    -0.861891300372E+03    0.10242E+00   -0.21136E+01  2376   0.610E+00    0.125E+00
RMM:   2    -0.861963937260E+03   -0.72637E-01   -0.93527E-01  2795   0.208E+00    0.137E+00
RMM:   3    -0.861985780135E+03   -0.21843E-01   -0.23173E-01  3376   0.599E-01    0.129E+00
RMM:   4    -0.861986527693E+03   -0.74756E-03   -0.63623E-02  3271   0.325E-01    0.109E+00
RMM:   5    -0.861996771982E+03   -0.10244E-01   -0.79919E-02  3293   0.308E-01    0.753E-01
RMM:   6    -0.861995431556E+03    0.13404E-02   -0.15275E-02  3060   0.186E-01    0.571E-01
RMM:   7    -0.861989138735E+03    0.62928E-02   -0.34855E-02  3259   0.207E-01    0.289E-01
RMM:   8    -0.861988978614E+03    0.16012E-03   -0.65957E-03  3059   0.114E-01    0.232E-01
RMM:   9    -0.861988829597E+03    0.14902E-03   -0.43383E-03  3322   0.590E-02    0.174E-01
RMM:  10    -0.861988702257E+03    0.12734E-03   -0.22458E-03  2828   0.542E-02    0.125E-01
RMM:  11    -0.861988851452E+03   -0.14920E-03   -0.40053E-03  3131   0.645E-02    0.607E-02
RMM:  12    -0.861988954452E+03   -0.10300E-03   -0.70747E-04  1765   0.464E-02    0.465E-02
RMM:  13    -0.861988992015E+03   -0.37564E-04   -0.41606E-04  1484   0.333E-02
  21 F= -.88265569E+03 E0= -.88265569E+03  d E =-.876340E-01  mag=     2.0000
       N       E                     dE             d eps       ncg     rms          rms(c)
DAV:   1    -0.861966827034E+03    0.22127E-01   -0.80482E+00  2624   0.376E+00    0.753E-01
RMM:   2    -0.861993856541E+03   -0.27030E-01   -0.35524E-01  2836   0.126E+00    0.841E-01
RMM:   3    -0.862001232938E+03   -0.73764E-02   -0.80388E-02  3287   0.356E-01    0.803E-01
RMM:   4    -0.862001246344E+03   -0.13406E-04   -0.20066E-02  3150   0.197E-01    0.696E-01
RMM:   5    -0.862005657888E+03   -0.44115E-02   -0.31925E-02  3144   0.195E-01    0.494E-01
RMM:   6    -0.862005213336E+03    0.44455E-03   -0.55753E-03  2841   0.126E-01    0.368E-01
RMM:   7    -0.862002276738E+03    0.29366E-02   -0.13944E-02  2981   0.134E-01    0.190E-01
RMM:   8    -0.862002139559E+03    0.13718E-03   -0.20108E-03  2420   0.815E-02    0.157E-01
RMM:   9    -0.862002102600E+03    0.36959E-04   -0.13944E-03  2379   0.394E-02    0.123E-01
RMM:  10    -0.862001992708E+03    0.10989E-03   -0.94906E-04  2173   0.495E-02    0.861E-02
RMM:  11    -0.862002065851E+03   -0.73142E-04   -0.19555E-03  2565   0.489E-02    0.444E-02
RMM:  12    -0.862002143711E+03   -0.77860E-04   -0.46382E-04  1533   0.435E-02
  22 F= -.88266765E+03 E0= -.88266765E+03  d E =-.995945E-01  mag=     2.0000
       N       E                     dE             d eps       ncg     rms          rms(c)
DAV:   1    -0.861998418176E+03    0.36477E-02   -0.77826E-01  2624   0.117E+00    0.253E-01
RMM:   2    -0.862000812873E+03   -0.23947E-02   -0.33648E-02  2765   0.394E-01    0.260E-01
RMM:   3    -0.862001537856E+03   -0.72498E-03   -0.77948E-03  3110   0.113E-01    0.237E-01
RMM:   4    -0.862001592158E+03   -0.54302E-04   -0.18779E-03  2372   0.685E-02    0.193E-01
RMM:   5    -0.862002065361E+03   -0.47320E-03   -0.28447E-03  2659   0.655E-02    0.130E-01
RMM:   6    -0.862001965723E+03    0.99638E-04   -0.70946E-04  1473   0.427E-02
  23 F= -.88266785E+03 E0= -.88266785E+03  d E =-.997883E-01  mag=     2.0000
       N       E                     dE             d eps       ncg     rms          rms(c)
DAV:   1    -0.862001979396E+03    0.85966E-04   -0.14414E-01  2808   0.507E-01    0.112E-01
RMM:   2    -0.862002462623E+03   -0.48323E-03   -0.59225E-03  2558   0.173E-01    0.121E-01
RMM:   3    -0.862002569123E+03   -0.10650E-03   -0.11818E-03  2122   0.508E-02    0.107E-01
RMM:   4    -0.862002583301E+03   -0.14178E-04   -0.29405E-04  1493   0.445E-02
  24 F= -.88266830E+03 E0= -.88266830E+03  d E =-.100246E+00  mag=     2.0000
       N       E                     dE             d eps       ncg     rms          rms(c)
DAV:   1    -0.862008679594E+03   -0.61105E-02   -0.32032E+00  2384   0.243E+00    0.419E-01
RMM:   2    -0.862019269056E+03   -0.10589E-01   -0.12346E-01  2776   0.786E-01    0.404E-01
RMM:   3    -0.862022283317E+03   -0.30143E-02   -0.31904E-02  3294   0.217E-01    0.370E-01
RMM:   4    -0.862022279008E+03    0.43087E-05   -0.63756E-03  3139   0.111E-01    0.316E-01
RMM:   5    -0.862023307086E+03   -0.10281E-02   -0.90447E-03  3227   0.105E-01    0.215E-01
RMM:   6    -0.862022932837E+03    0.37425E-03   -0.19949E-03  2635   0.645E-02    0.147E-01
RMM:   7    -0.862022863128E+03    0.69709E-04   -0.56935E-03  3033   0.818E-02    0.752E-02
RMM:   8    -0.862022869028E+03   -0.59002E-05   -0.49261E-04  1666   0.484E-02
  25 F= -.88268879E+03 E0= -.88268879E+03  d E =-.204862E-01  mag=     2.0000
       N       E                     dE             d eps       ncg     rms          rms(c)
DAV:   1    -0.862024218520E+03   -0.13554E-02   -0.19958E+00  2408   0.192E+00    0.350E-01
RMM:   2    -0.862030834625E+03   -0.66161E-02   -0.77715E-02  2768   0.622E-01    0.315E-01
RMM:   3    -0.862032984707E+03   -0.21501E-02   -0.22700E-02  3426   0.176E-01    0.281E-01
RMM:   4    -0.862033121419E+03   -0.13671E-03   -0.48567E-03  3197   0.896E-02    0.240E-01
RMM:   5    -0.862033663798E+03   -0.54238E-03   -0.47643E-03  3267   0.765E-02    0.151E-01
RMM:   6    -0.862033606694E+03    0.57104E-04   -0.17417E-03  2522   0.490E-02    0.955E-02
RMM:   7    -0.862033665449E+03   -0.58755E-04   -0.25617E-03  2795   0.583E-02    0.520E-02
RMM:   8    -0.862033688778E+03   -0.23329E-04   -0.43265E-04  1593   0.372E-02
  26 F= -.88269977E+03 E0= -.88269977E+03  d E =-.314664E-01  mag=     2.0000
       N       E                     dE             d eps       ncg     rms          rms(c)
DAV:   1    -0.862005553771E+03    0.28112E-01   -0.79715E+00  2352   0.383E+00    0.666E-01
RMM:   2    -0.862031907692E+03   -0.26354E-01   -0.30493E-01  2774   0.124E+00    0.621E-01
RMM:   3    -0.862039825119E+03   -0.79174E-02   -0.83996E-02  3408   0.346E-01    0.563E-01
RMM:   4    -0.862039948545E+03   -0.12343E-03   -0.17546E-02  3289   0.172E-01    0.481E-01
RMM:   5    -0.862041863756E+03   -0.19152E-02   -0.19227E-02  3392   0.152E-01    0.313E-01
RMM:   6    -0.862041242167E+03    0.62159E-03   -0.56558E-03  3077   0.960E-02    0.199E-01
RMM:   7    -0.862041243211E+03   -0.10434E-05   -0.10126E-02  3329   0.106E-01    0.114E-01
RMM:   8    -0.862041264292E+03   -0.21081E-04   -0.14236E-03  2360   0.592E-02    0.951E-02
RMM:   9    -0.862041246249E+03    0.18043E-04   -0.38564E-04  1598   0.349E-02
  27 F= -.88270765E+03 E0= -.88270765E+03  d E =-.393502E-01  mag=     2.0000
       N       E                     dE             d eps       ncg     rms          rms(c)
DAV:   1    -0.862028969275E+03    0.12295E-01   -0.67539E+00  2320   0.354E+00    0.572E-01
RMM:   2    -0.862052252001E+03   -0.23283E-01   -0.27098E-01  2931   0.109E+00    0.403E-01
RMM:   3    -0.862057919613E+03   -0.56676E-02   -0.62029E-02  3435   0.284E-01    0.348E-01
RMM:   4    -0.862057893158E+03    0.26455E-04   -0.11475E-02  3290   0.134E-01    0.275E-01
RMM:   5    -0.862058510120E+03   -0.61696E-03   -0.84134E-03  3364   0.907E-02    0.170E-01
RMM:   6    -0.862058623581E+03   -0.11346E-03   -0.28793E-03  2988   0.616E-02    0.950E-02
RMM:   7    -0.862058799332E+03   -0.17575E-03   -0.29805E-03  3155   0.547E-02    0.614E-02
RMM:   8    -0.862058830934E+03   -0.31602E-04   -0.57404E-04  1759   0.377E-02
  28 F= -.88272499E+03 E0= -.88272499E+03  d E =-.173393E-01  mag=     2.0000
       N       E                     dE             d eps       ncg     rms          rms(c)
DAV:   1    -0.862058609247E+03    0.19009E-03   -0.87970E-01  2600   0.128E+00    0.206E-01
RMM:   2    -0.862061783696E+03   -0.31744E-02   -0.35425E-02  2891   0.397E-01    0.148E-01
RMM:   3    -0.862062708269E+03   -0.92457E-03   -0.98031E-03  3555   0.107E-01    0.132E-01
RMM:   4    -0.862062780106E+03   -0.71837E-04   -0.21809E-03  2846   0.520E-02    0.114E-01
RMM:   5    -0.862062884363E+03   -0.10426E-03   -0.11589E-03  2185   0.437E-02    0.731E-02
RMM:   6    -0.862063014293E+03   -0.12993E-03   -0.89902E-04  1763   0.440E-02    0.304E-02
RMM:   7    -0.862063076219E+03   -0.61926E-04   -0.50390E-04  1472   0.371E-02
  29 F= -.88272915E+03 E0= -.88272915E+03  d E =-.214983E-01  mag=     2.0000
       N       E                     dE             d eps       ncg     rms          rms(c)
DAV:   1    -0.862051615055E+03    0.11399E-01   -0.34979E+00  2320   0.255E+00    0.399E-01
RMM:   2    -0.862063798224E+03   -0.12183E-01   -0.14111E-01  2926   0.789E-01    0.280E-01
RMM:   3    -0.862067055808E+03   -0.32576E-02   -0.35223E-02  3539   0.206E-01    0.246E-01
RMM:   4    -0.862067119810E+03   -0.64002E-04   -0.71327E-03  3341   0.958E-02    0.200E-01
RMM:   5    -0.862067421212E+03   -0.30140E-03   -0.46156E-03  3318   0.708E-02    0.128E-01
RMM:   6    -0.862067576311E+03   -0.15510E-03   -0.21309E-03  2617   0.485E-02    0.667E-02
RMM:   7    -0.862067670685E+03   -0.94373E-04   -0.12109E-03  2307   0.471E-02    0.412E-02
RMM:   8    -0.862067723327E+03   -0.52642E-04   -0.55059E-04  1660   0.366E-02
  30 F= -.88273363E+03 E0= -.88273363E+03  d E =-.259758E-01  mag=     2.0000
       N       E                     dE             d eps       ncg     rms          rms(c)
DAV:   1    -0.862062629724E+03    0.50410E-02   -0.28364E+00  2336   0.235E+00    0.389E-01
RMM:   2    -0.862072384949E+03   -0.97552E-02   -0.12769E-01  2840   0.788E-01    0.396E-01
RMM:   3    -0.862075593565E+03   -0.32086E-02   -0.33450E-02  3395   0.218E-01    0.358E-01
RMM:   4    -0.862075662046E+03   -0.68481E-04   -0.75632E-03  3261   0.111E-01    0.306E-01
RMM:   5    -0.862076395444E+03   -0.73340E-03   -0.67444E-03  3305   0.867E-02    0.217E-01
RMM:   6    -0.862076309590E+03    0.85854E-04   -0.19264E-03  2765   0.576E-02    0.131E-01
RMM:   7    -0.862076251906E+03    0.57684E-04   -0.28640E-03  3055   0.583E-02    0.623E-02
RMM:   8    -0.862076274716E+03   -0.22811E-04   -0.40416E-04  1619   0.363E-02
  31 F= -.88274283E+03 E0= -.88274283E+03  d E =-.920445E-02  mag=     2.0000
       N       E                     dE             d eps       ncg     rms          rms(c)
DAV:   1    -0.862076373669E+03   -0.12176E-03   -0.12502E-01  2800   0.492E-01    0.100E-01
RMM:   2    -0.862076869040E+03   -0.49537E-03   -0.65877E-03  2856   0.173E-01    0.917E-02
RMM:   3    -0.862077060767E+03   -0.19173E-03   -0.19283E-03  2879   0.515E-02    0.815E-02
RMM:   4    -0.862077108849E+03   -0.48082E-04   -0.54838E-04  1711   0.368E-02
  32 F= -.88274380E+03 E0= -.88274380E+03  d E =-.101740E-01  mag=     2.0000
       N       E                     dE             d eps       ncg     rms          rms(c)
DAV:   1    -0.862075338780E+03    0.17220E-02   -0.48789E-01  2376   0.973E-01    0.177E-01
RMM:   2    -0.862077035062E+03   -0.16963E-02   -0.23326E-02  2833   0.334E-01    0.192E-01
RMM:   3    -0.862077754841E+03   -0.71978E-03   -0.74281E-03  3553   0.960E-02    0.177E-01
RMM:   4    -0.862077830141E+03   -0.75300E-04   -0.20200E-03  2839   0.520E-02    0.157E-01
RMM:   5    -0.862078001507E+03   -0.17137E-03   -0.12774E-03  2392   0.480E-02    0.117E-01
RMM:   6    -0.862078076053E+03   -0.74546E-04   -0.81085E-04  1746   0.414E-02
  33 F= -.88274504E+03 E0= -.88274504E+03  d E =-.114121E-01  mag=     2.0000
       N       E                     dE             d eps       ncg     rms          rms(c)
DAV:   1    -0.862066010537E+03    0.11991E-01   -0.19354E+00  2352   0.195E+00    0.346E-01
RMM:   2    -0.862072958749E+03   -0.69482E-02   -0.94745E-02  2912   0.663E-01    0.329E-01
RMM:   3    -0.862075315422E+03   -0.23567E-02   -0.24991E-02  3547   0.181E-01    0.298E-01
RMM:   4    -0.862075369076E+03   -0.53654E-04   -0.64607E-03  3255   0.954E-02    0.254E-01
RMM:   5    -0.862075898169E+03   -0.52909E-03   -0.49688E-03  3302   0.796E-02    0.186E-01
RMM:   6    -0.862075882318E+03    0.15851E-04   -0.16865E-03  2588   0.511E-02    0.107E-01
RMM:   7    -0.862075854607E+03    0.27711E-04   -0.21005E-03  2821   0.550E-02    0.492E-02
RMM:   8    -0.862075887968E+03   -0.33361E-04   -0.43962E-04  1660   0.361E-02
  34 F= -.88274340E+03 E0= -.88274340E+03  d E =-.976722E-02  mag=     2.0000
       N       E                     dE             d eps       ncg     rms          rms(c)
DAV:   1    -0.862072393230E+03    0.34614E-02   -0.13677E+00  2560   0.163E+00    0.270E-01
RMM:   2    -0.862076880028E+03   -0.44868E-02   -0.59375E-02  2797   0.543E-01    0.274E-01
RMM:   3    -0.862078251747E+03   -0.13717E-02   -0.14285E-02  3199   0.150E-01    0.249E-01
RMM:   4    -0.862078206784E+03    0.44962E-04   -0.25294E-03  2788   0.777E-02    0.210E-01
RMM:   5    -0.862078649366E+03   -0.44258E-03   -0.35251E-03  2911   0.678E-02    0.145E-01
RMM:   6    -0.862078519387E+03    0.12998E-03   -0.57956E-04  1615   0.476E-02    0.944E-02
RMM:   7    -0.862078400217E+03    0.11917E-03   -0.14893E-03  2332   0.522E-02    0.445E-02
RMM:   8    -0.862078427378E+03   -0.27161E-04   -0.23300E-04  1409   0.359E-02
  35 F= -.88274548E+03 E0= -.88274548E+03  d E =-.118491E-01  mag=     2.0000
       N       E                     dE             d eps       ncg     rms          rms(c)
DAV:   1    -0.862076367559E+03    0.20327E-02   -0.33988E-01  2520   0.816E-01    0.124E-01
RMM:   2    -0.862077474658E+03   -0.11071E-02   -0.13913E-02  2691   0.269E-01    0.134E-01
RMM:   3    -0.862077792779E+03   -0.31812E-03   -0.32981E-03  2889   0.756E-02    0.125E-01
RMM:   4    -0.862077771462E+03    0.21317E-04   -0.43750E-04  1741   0.410E-02
  36 F= -.88274505E+03 E0= -.88274505E+03  d E =-.114218E-01  mag=     2.0000
       N       E                     dE             d eps       ncg     rms          rms(c)
DAV:   1    -0.862077577136E+03    0.21564E-03   -0.18175E-01  2376   0.602E-01    0.104E-01
RMM:   2    -0.862078354243E+03   -0.77711E-03   -0.83749E-03  2738   0.202E-01    0.628E-02
RMM:   3    -0.862078468808E+03   -0.11457E-03   -0.12390E-03  2181   0.564E-02    0.595E-02
RMM:   4    -0.862078467838E+03    0.97069E-06   -0.21774E-04  1430   0.398E-02
  37 F= -.88274558E+03 E0= -.88274558E+03  d E =-.119539E-01  mag=     2.0000
       N       E                     dE             d eps       ncg     rms          rms(c)
DAV:   1    -0.862066330856E+03    0.12138E-01   -0.38437E+00  2304   0.272E+00    0.437E-01
RMM:   2    -0.862080227092E+03   -0.13896E-01   -0.16483E-01  2851   0.900E-01    0.305E-01
RMM:   3    -0.862084130904E+03   -0.39038E-02   -0.41104E-02  3357   0.246E-01    0.254E-01
RMM:   4    -0.862084305310E+03   -0.17441E-03   -0.80713E-03  3294   0.112E-01    0.198E-01
RMM:   5    -0.862084719494E+03   -0.41418E-03   -0.50820E-03  3365   0.693E-02    0.128E-01
RMM:   6    -0.862084791061E+03   -0.71567E-04   -0.16586E-03  2508   0.505E-02    0.833E-02
RMM:   7    -0.862084899023E+03   -0.10796E-03   -0.17037E-03  2713   0.477E-02    0.471E-02
RMM:   8    -0.862084940448E+03   -0.41424E-04   -0.41030E-04  1607   0.347E-02
  38 F= -.88275140E+03 E0= -.88275140E+03  d E =-.581574E-02  mag=     2.0000
       N       E                     dE             d eps       ncg     rms          rms(c)
DAV:   1    -0.862085077844E+03   -0.17882E-03   -0.29816E-02  3096   0.238E-01    0.549E-02
RMM:   2    -0.862085210112E+03   -0.13227E-03   -0.13794E-03  2390   0.919E-02    0.469E-02
RMM:   3    -0.862085267862E+03   -0.57750E-04   -0.53609E-04  1766   0.326E-02
  39 F= -.88275167E+03 E0= -.88275167E+03  d E =-.608758E-02  mag=     2.0000
       N       E                     dE             d eps       ncg     rms          rms(c)
DAV:   1    -0.862082228183E+03    0.29819E-02   -0.12468E+00  2320   0.155E+00    0.267E-01
RMM:   2    -0.862086996148E+03   -0.47680E-02   -0.60377E-02  2827   0.545E-01    0.253E-01
RMM:   3    -0.862088535769E+03   -0.15396E-02   -0.16092E-02  3402   0.152E-01    0.231E-01
RMM:   4    -0.862088535152E+03    0.61687E-06   -0.38011E-03  3112   0.834E-02    0.192E-01
RMM:   5    -0.862088999252E+03   -0.46410E-03   -0.40163E-03  3222   0.695E-02    0.140E-01
RMM:   6    -0.862088881483E+03    0.11777E-03   -0.95690E-04  2068   0.449E-02    0.934E-02
RMM:   7    -0.862088842975E+03    0.38508E-04   -0.17395E-03  2515   0.536E-02    0.398E-02
RMM:   8    -0.862088875203E+03   -0.32228E-04   -0.31066E-04  1470   0.379E-02
  40 F= -.88275503E+03 E0= -.88275503E+03  d E =-.335815E-02  mag=     2.0000
       N       E                     dE             d eps       ncg     rms          rms(c)
DAV:   1    -0.862088904889E+03   -0.61913E-04   -0.26203E-04  1832   0.321E-02    0.365E-02
RMM:   2    -0.862088929446E+03   -0.24557E-04   -0.11525E-04  1366   0.296E-02
  41 F= -.88275508E+03 E0= -.88275508E+03  d E =-.341245E-02  mag=     2.0000
