       N       E                     dE             d eps       ncg     rms          rms(c)
DAV:   1    -0.882543526836E+03   -0.88254E+03   -0.55188E-04  1464   0.151E-02    0.159E-01
RMM:   2    -0.882544095737E+03   -0.56890E-03   -0.15529E-03  1780   0.330E-02    0.579E-01
RMM:   3    -0.882542825889E+03    0.12698E-02   -0.50259E-04  1401   0.361E-02    0.860E-02
RMM:   4    -0.882543372185E+03   -0.54630E-03   -0.11509E-04  1190   0.154E-02    0.336E-02
RMM:   5    -0.882543456218E+03   -0.84033E-04   -0.45734E-05  1127   0.128E-02
   1 F= -.90362982E+03 E0= -.90362577E+03  d E =-.903630E+03  mag=     1.9406
       N       E                     dE             d eps       ncg     rms          rms(c)
DAV:   1    -0.882543509909E+03   -0.13772E-03   -0.89863E-03  2368   0.106E-01    0.700E-02
RMM:   2    -0.882543640013E+03   -0.13010E-03   -0.46371E-04  1395   0.330E-02    0.249E-01
RMM:   3    -0.882543386549E+03    0.25346E-03   -0.12809E-04  1238   0.266E-02    0.374E-02
RMM:   4    -0.882543526500E+03   -0.13995E-03   -0.54062E-05  1168   0.151E-02    0.270E-02
RMM:   5    -0.882543557655E+03   -0.31155E-04   -0.42527E-05  1142   0.139E-02
   2 F= -.90363004E+03 E0= -.90362595E+03  d E =-.225314E-03  mag=     1.9404
       N       E                     dE             d eps       ncg     rms          rms(c)
DAV:   1    -0.882543658868E+03   -0.13237E-03   -0.92580E-03  2296   0.102E-01    0.532E-02
RMM:   2    -0.882543709991E+03   -0.51124E-04   -0.31685E-04  1259   0.276E-02
   3 F= -.90363026E+03 E0= -.90362635E+03  d E =-.218236E-03  mag=     1.9420
       N       E                     dE             d eps       ncg     rms          rms(c)
DAV:   1    -0.882543601055E+03    0.57812E-04   -0.38070E-03  2032   0.679E-02    0.606E-02
RMM:   2    -0.882543761652E+03   -0.16060E-03   -0.43871E-04  1300   0.303E-02    0.212E-01
RMM:   3    -0.882543579708E+03    0.18194E-03   -0.94669E-05  1185   0.217E-02    0.376E-02
RMM:   4    -0.882543695835E+03   -0.11613E-03   -0.55722E-05  1151   0.145E-02    0.653E-02
RMM:   5    -0.882543714343E+03   -0.18508E-04   -0.61263E-05  1133   0.112E-02
   4 F= -.90363033E+03 E0= -.90362631E+03  d E =-.728805E-04  mag=     1.9420
       N       E                     dE             d eps       ncg     rms          rms(c)
DAV:   1    -0.882543756294E+03   -0.60459E-04   -0.23440E-03  2080   0.530E-02    0.338E-02
RMM:   2    -0.882543789311E+03   -0.33017E-04   -0.11054E-04  1199   0.212E-02
   5 F= -.90363048E+03 E0= -.90362655E+03  d E =-.143035E-03  mag=     1.9420
       N       E                     dE             d eps       ncg     rms          rms(c)
DAV:   1    -0.882543795225E+03   -0.38931E-04   -0.79155E-03  2384   0.973E-02    0.398E-02
RMM:   2    -0.882543854606E+03   -0.59381E-04   -0.30195E-04  1321   0.284E-02
   6 F= -.90363492E+03 E0= -.90363078E+03  d E =-.444491E-02  mag=     1.9431
       N       E                     dE             d eps       ncg     rms          rms(c)
DAV:   1    -0.882543797583E+03   -0.23583E-05   -0.16401E-02  2600   0.145E-01    0.519E-02
RMM:   2    -0.882543863767E+03   -0.66184E-04   -0.49164E-04  1351   0.396E-02
   7 F= -.90363509E+03 E0= -.90363123E+03  d E =-.173449E-03  mag=     1.9426
