 vasp.5.3.5 31Mar14 (build May 27 2014 14:39:49) gamma-only                     
  
 executed on           LinuxIFORT date 2020.11.05  10:26:20
 running on   48 total cores
 distrk:  each k-point on   48 cores,    1 groups
 distr:  one band on NCORES_PER_BAND=   6 cores,    8 groups


--------------------------------------------------------------------------------------------------------


 INCAR:
 POTCAR:    PAW_PBE Ce 23Dec2003                  
 POTCAR:    PAW_PBE O 08Apr2002                   
 POTCAR:    PAW_PBE Pt 04Feb2005                  
 POTCAR:    PAW_PBE O 08Apr2002                   
 POTCAR:    PAW_PBE C 08Apr2002                   
 POTCAR:    PAW_PBE O 08Apr2002                   
 POTCAR:    PAW_PBE Ce 23Dec2003                  
   VRHFIN =Ce : [core= Kr 4d10]                                                 
   LEXCH  = PE                                                                  
   EATOM  =  1063.0861 eV,   78.1346 Ry                                         
                                                                                
   TITEL  = PAW_PBE Ce 23Dec2003                                                
   LULTRA =        F    use ultrasoft PP ?                                      
   IUNSCR =        1    unscreen: 0-lin 1-nonlin 2-no                           
   RPACOR =    1.800    partial core radius                                     
   POMASS =  140.115; ZVAL   =   12.000    mass and valenz                      
   RCORE  =    2.700    outmost cutoff radius                                   
   RWIGS  =    2.500; RWIGS  =    1.323    wigner-seitz radius (au A)           
   ENMAX  =  273.042; ENMIN  =  204.781 eV                                      
   RCLOC  =    1.810    cutoff for local pot                                    
   LCOR   =        T    correct aug charges                                     
   LPAW   =        T    paw PP                                                  
   EAUG   =  580.196                                                            
   DEXC   =    0.000                                                            
   RMAX   =    2.749    core radius for proj-oper                               
   RAUG   =    1.300    factor for augmentation sphere                          
   RDEP   =    2.810    radius for radial grids                                 
   RDEPT  =    2.162    core radius for aug-charge                              
                                                                                
   Atomic configuration                                                         
   14 entries                                                                   
     n  l   j            E        occ.                                          
     1  0  0.50    -40258.9816   2.0000                                         
     2  0  0.50     -6445.4884   2.0000                                         
     2  1  1.50     -5771.7470   6.0000                                         
     3  0  0.50     -1387.9739   2.0000                                         
     3  1  1.50     -1173.8158   6.0000                                         
     3  2  2.50      -869.9108  10.0000                                         
     4  0  0.50      -280.8706   2.0000                                         
     4  1  1.50      -210.9815   6.0000                                         
     4  2  2.50      -110.4558  10.0000                                         
     5  0  0.50       -40.5819   2.0000                                         
     6  0  0.50        -3.7444   2.0000                                         
     5  1  1.50       -23.2188   6.0000                                         
     5  2  2.50        -3.0598   1.0000                                         
     4  3  2.50        -5.3970   1.0000                                         
   Description                                                                  
     l       E           TYP  RCUT    TYP  RCUT                                 
     0    -40.5819164     23  1.500                                             
     0     -3.7443793     23  2.300                                             
     1    -23.2188445     23  2.000                                             
     1     40.8174780     23  2.300                                             
     2     -3.0597556     23  2.500                                             
     2     13.6058260     23  2.500                                             
     3     -5.3970469     23  2.700                                             
     3     -5.8505052     23  2.700                                             
  local pseudopotential read in
  partial core-charges read in
  partial kinetic energy density read in
  atomic valenz-charges read in
  non local Contribution for L=           0  read in
    real space projection operators read in
  non local Contribution for L=           0  read in
    real space projection operators read in
  non local Contribution for L=           1  read in
    real space projection operators read in
  non local Contribution for L=           1  read in
    real space projection operators read in
  non local Contribution for L=           2  read in
    real space projection operators read in
  non local Contribution for L=           2  read in
    real space projection operators read in
  non local Contribution for L=           3  read in
    real space projection operators read in
  non local Contribution for L=           3  read in
    real space projection operators read in
    PAW grid and wavefunctions read in
 
   number of l-projection  operators is LMAX  =           8
   number of lm-projection operators is LMMAX =          32
 
 POTCAR:    PAW_PBE O 08Apr2002                   
   VRHFIN =O: s2p4                                                              
   LEXCH  = PE                                                                  
   EATOM  =   432.3788 eV,   31.7789 Ry                                         
                                                                                
   TITEL  = PAW_PBE O 08Apr2002                                                 
   LULTRA =        F    use ultrasoft PP ?                                      
   IUNSCR =        1    unscreen: 0-lin 1-nonlin 2-no                           
   RPACOR =    1.200    partial core radius                                     
   POMASS =   16.000; ZVAL   =    6.000    mass and valenz                      
   RCORE  =    1.520    outmost cutoff radius                                   
   RWIGS  =    1.550; RWIGS  =    0.820    wigner-seitz radius (au A)           
   ENMAX  =  400.000; ENMIN  =  300.000 eV                                      
   ICORE  =        2    local potential                                         
   LCOR   =        T    correct aug charges                                     
   LPAW   =        T    paw PP                                                  
   EAUG   =  605.392                                                            
   DEXC   =    0.000                                                            
   RMAX   =    1.553    core radius for proj-oper                               
   RAUG   =    1.300    factor for augmentation sphere                          
   RDEP   =    1.550    radius for radial grids                                 
   RDEPT  =    1.329    core radius for aug-charge                              
                                                                                
   Atomic configuration                                                         
    4 entries                                                                   
     n  l   j            E        occ.                                          
     1  0  0.50      -514.6923   2.0000                                         
     2  0  0.50       -23.9615   2.0000                                         
     2  1  0.50        -9.0305   4.0000                                         
     3  2  1.50        -9.5241   0.0000                                         
   Description                                                                  
     l       E           TYP  RCUT    TYP  RCUT                                 
     0    -23.9615318     23  1.200                                             
     0     -9.5240782     23  1.200                                             
     1     -9.0304911     23  1.520                                             
     1      8.1634956     23  1.520                                             
     2     -9.5240782      7  1.500                                             
  local pseudopotential read in
  partial core-charges read in
  partial kinetic energy density read in
  kinetic energy density of atom read in
  atomic valenz-charges read in
  non local Contribution for L=           0  read in
    real space projection operators read in
  non local Contribution for L=           0  read in
    real space projection operators read in
  non local Contribution for L=           1  read in
    real space projection operators read in
  non local Contribution for L=           1  read in
    real space projection operators read in
    PAW grid and wavefunctions read in
 
   number of l-projection  operators is LMAX  =           4
   number of lm-projection operators is LMMAX =           8
 
 POTCAR:    PAW_PBE Pt 04Feb2005                  
   VRHFIN =Pt: s1d9                                                             
   LEXCH  = PE                                                                  
   EATOM  =   729.1176 eV,   53.5886 Ry                                         
                                                                                
   TITEL  = PAW_PBE Pt 04Feb2005                                                
   LULTRA =        F    use ultrasoft PP ?                                      
   IUNSCR =        1    unscreen: 0-lin 1-nonlin 2-no                           
   RPACOR =    2.330    partial core radius                                     
   POMASS =  195.080; ZVAL   =   10.000    mass and valenz                      
   RCORE  =    2.600    outmost cutoff radius                                   
   RWIGS  =    2.750; RWIGS  =    1.455    wigner-seitz radius (au A)           
   ENMAX  =  230.283; ENMIN  =  172.712 eV                                      
   ICORE  =        3    local potential                                         
   LCOR   =        T    correct aug charges                                     
   LPAW   =        T    paw PP                                                  
   EAUG   =  358.966                                                            
   DEXC   =    0.000                                                            
   RMAX   =    2.658    core radius for proj-oper                               
   RAUG   =    1.300    factor for augmentation sphere                          
   RDEP   =    2.761    radius for radial grids                                 
   RDEPT  =    2.203    core radius for aug-charge                              
                                                                                
   Atomic configuration                                                         
   16 entries                                                                   
     n  l   j            E        occ.                                          
     1  0  0.50    -78401.1885   2.0000                                         
     2  0  0.50    -13770.7750   2.0000                                         
     2  1  1.50    -11931.0468   6.0000                                         
     3  0  0.50     -3234.7234   2.0000                                         
     3  1  1.50     -2699.2216   6.0000                                         
     3  2  2.50     -2119.5714  10.0000                                         
     4  0  0.50      -695.1528   2.0000                                         
     4  1  1.50      -519.6034   6.0000                                         
     4  2  2.50      -306.6786  10.0000                                         
     4  3  3.50       -70.1041  14.0000                                         
     5  0  0.50      -101.7747   2.0000                                         
     5  1  1.50       -55.9873   6.0000                                         
     5  2  2.50        -6.1423   9.0000                                         
     6  0  0.50        -5.6573   1.0000                                         
     6  1  1.50        -6.8029   0.0000                                         
     5  3  2.50        -1.3606   0.0000                                         
   Description                                                                  
     l       E           TYP  RCUT    TYP  RCUT                                 
     2     -6.1423404     23  2.500                                             
     2     -7.5029230     23  2.500                                             
     0     -5.6573207     23  2.500                                             
     0      0.7416693     23  2.500                                             
     1     -2.7211652     23  2.600                                             
     1     20.4087390     23  2.600                                             
     3     -1.3605826     23  2.500                                             
  local pseudopotential read in
  partial core-charges read in
  partial kinetic energy density read in
  atomic valenz-charges read in
  non local Contribution for L=           2  read in
    real space projection operators read in
  non local Contribution for L=           2  read in
    real space projection operators read in
  non local Contribution for L=           0  read in
    real space projection operators read in
  non local Contribution for L=           0  read in
    real space projection operators read in
  non local Contribution for L=           1  read in
    real space projection operators read in
  non local Contribution for L=           1  read in
    real space projection operators read in
    PAW grid and wavefunctions read in
 
   number of l-projection  operators is LMAX  =           6
   number of lm-projection operators is LMMAX =          18
 
 POTCAR:    PAW_PBE O 08Apr2002                   
   VRHFIN =O: s2p4                                                              
   LEXCH  = PE                                                                  
   EATOM  =   432.3788 eV,   31.7789 Ry                                         
                                                                                
   TITEL  = PAW_PBE O 08Apr2002                                                 
   LULTRA =        F    use ultrasoft PP ?                                      
   IUNSCR =        1    unscreen: 0-lin 1-nonlin 2-no                           
   RPACOR =    1.200    partial core radius                                     
   POMASS =   16.000; ZVAL   =    6.000    mass and valenz                      
   RCORE  =    1.520    outmost cutoff radius                                   
   RWIGS  =    1.550; RWIGS  =    0.820    wigner-seitz radius (au A)           
   ENMAX  =  400.000; ENMIN  =  300.000 eV                                      
   ICORE  =        2    local potential                                         
   LCOR   =        T    correct aug charges                                     
   LPAW   =        T    paw PP                                                  
   EAUG   =  605.392                                                            
   DEXC   =    0.000                                                            
   RMAX   =    1.553    core radius for proj-oper                               
   RAUG   =    1.300    factor for augmentation sphere                          
   RDEP   =    1.550    radius for radial grids                                 
   RDEPT  =    1.329    core radius for aug-charge                              
                                                                                
   Atomic configuration                                                         
    4 entries                                                                   
     n  l   j            E        occ.                                          
     1  0  0.50      -514.6923   2.0000                                         
     2  0  0.50       -23.9615   2.0000                                         
     2  1  0.50        -9.0305   4.0000                                         
     3  2  1.50        -9.5241   0.0000                                         
   Description                                                                  
     l       E           TYP  RCUT    TYP  RCUT                                 
     0    -23.9615318     23  1.200                                             
     0     -9.5240782     23  1.200                                             
     1     -9.0304911     23  1.520                                             
     1      8.1634956     23  1.520                                             
     2     -9.5240782      7  1.500                                             
  local pseudopotential read in
  partial core-charges read in
  partial kinetic energy density read in
  kinetic energy density of atom read in
  atomic valenz-charges read in
  non local Contribution for L=           0  read in
    real space projection operators read in
  non local Contribution for L=           0  read in
    real space projection operators read in
  non local Contribution for L=           1  read in
    real space projection operators read in
  non local Contribution for L=           1  read in
    real space projection operators read in
    PAW grid and wavefunctions read in
 
   number of l-projection  operators is LMAX  =           4
   number of lm-projection operators is LMMAX =           8
 
 POTCAR:    PAW_PBE C 08Apr2002                   
   VRHFIN =C: s2p2                                                              
   LEXCH  = PE                                                                  
   EATOM  =   147.1560 eV,   10.8157 Ry                                         
                                                                                
   TITEL  = PAW_PBE C 08Apr2002                                                 
   LULTRA =        F    use ultrasoft PP ?                                      
   IUNSCR =        1    unscreen: 0-lin 1-nonlin 2-no                           
   RPACOR =    1.200    partial core radius                                     
   POMASS =   12.011; ZVAL   =    4.000    mass and valenz                      
   RCORE  =    1.500    outmost cutoff radius                                   
   RWIGS  =    1.630; RWIGS  =    0.863    wigner-seitz radius (au A)           
   ENMAX  =  400.000; ENMIN  =  300.000 eV                                      
   ICORE  =        2    local potential                                         
   LCOR   =        T    correct aug charges                                     
   LPAW   =        T    paw PP                                                  
   EAUG   =  644.873                                                            
   DEXC   =    0.000                                                            
   RMAX   =    1.529    core radius for proj-oper                               
   RAUG   =    1.300    factor for augmentation sphere                          
   RDEP   =    1.501    radius for radial grids                                 
   RDEPT  =    1.300    core radius for aug-charge                              
                                                                                
   Atomic configuration                                                         
    4 entries                                                                   
     n  l   j            E        occ.                                          
     1  0  0.50      -273.3789   2.0000                                         
     2  0  0.50       -13.7508   2.0000                                         
     2  1  0.50        -5.2854   2.0000                                         
     3  2  1.50        -5.4423   0.0000                                         
   Description                                                                  
     l       E           TYP  RCUT    TYP  RCUT                                 
     0    -13.7508458     23  1.200                                             
     0     -8.2022199     23  1.200                                             
     1     -5.2854383     23  1.500                                             
     1     34.0145650     23  1.500                                             
     2     -5.4423304      7  1.500                                             
  local pseudopotential read in
  partial core-charges read in
  partial kinetic energy density read in
  atomic valenz-charges read in
  non local Contribution for L=           0  read in
    real space projection operators read in
  non local Contribution for L=           0  read in
    real space projection operators read in
  non local Contribution for L=           1  read in
    real space projection operators read in
  non local Contribution for L=           1  read in
    real space projection operators read in
    PAW grid and wavefunctions read in
 
   number of l-projection  operators is LMAX  =           4
   number of lm-projection operators is LMMAX =           8
 
 POTCAR:    PAW_PBE O 08Apr2002                   
   VRHFIN =O: s2p4                                                              
   LEXCH  = PE                                                                  
   EATOM  =   432.3788 eV,   31.7789 Ry                                         
                                                                                
   TITEL  = PAW_PBE O 08Apr2002                                                 
   LULTRA =        F    use ultrasoft PP ?                                      
   IUNSCR =        1    unscreen: 0-lin 1-nonlin 2-no                           
   RPACOR =    1.200    partial core radius                                     
   POMASS =   16.000; ZVAL   =    6.000    mass and valenz                      
   RCORE  =    1.520    outmost cutoff radius                                   
   RWIGS  =    1.550; RWIGS  =    0.820    wigner-seitz radius (au A)           
   ENMAX  =  400.000; ENMIN  =  300.000 eV                                      
   ICORE  =        2    local potential                                         
   LCOR   =        T    correct aug charges                                     
   LPAW   =        T    paw PP                                                  
   EAUG   =  605.392                                                            
   DEXC   =    0.000                                                            
   RMAX   =    1.553    core radius for proj-oper                               
   RAUG   =    1.300    factor for augmentation sphere                          
   RDEP   =    1.550    radius for radial grids                                 
   RDEPT  =    1.329    core radius for aug-charge                              
                                                                                
   Atomic configuration                                                         
    4 entries                                                                   
     n  l   j            E        occ.                                          
     1  0  0.50      -514.6923   2.0000                                         
     2  0  0.50       -23.9615   2.0000                                         
     2  1  0.50        -9.0305   4.0000                                         
     3  2  1.50        -9.5241   0.0000                                         
   Description                                                                  
     l       E           TYP  RCUT    TYP  RCUT                                 
     0    -23.9615318     23  1.200                                             
     0     -9.5240782     23  1.200                                             
     1     -9.0304911     23  1.520                                             
     1      8.1634956     23  1.520                                             
     2     -9.5240782      7  1.500                                             
  local pseudopotential read in
  partial core-charges read in
  partial kinetic energy density read in
  kinetic energy density of atom read in
  atomic valenz-charges read in
  non local Contribution for L=           0  read in
    real space projection operators read in
  non local Contribution for L=           0  read in
    real space projection operators read in
  non local Contribution for L=           1  read in
    real space projection operators read in
  non local Contribution for L=           1  read in
    real space projection operators read in
    PAW grid and wavefunctions read in
 
   number of l-projection  operators is LMAX  =           4
   number of lm-projection operators is LMMAX =           8
 
 Optimization of the real space projectors (new method)

 maximal supplied QI-value         = 13.98
 optimisation between [QCUT,QGAM] = [ 10.21, 20.42] = [ 29.18,116.73] Ry 
 Optimized for a Real-space Cutoff    1.65 Angstroem

   l    n(q)    QCUT    max X(q) W(low)/X(q) W(high)/X(q)  e(spline) 
   0     10    10.208     8.553    0.18E-04    0.75E-05    0.12E-06
   0     10    10.208     8.106    0.26E-04    0.16E-04    0.24E-06
   1     10    10.208     4.160    0.93E-05    0.96E-06    0.75E-07
   1     10    10.208     3.597    0.23E-04    0.26E-04    0.15E-06
   2      9    10.208     8.183    0.11E-03    0.28E-03    0.51E-06
   2      9    10.208     6.077    0.74E-04    0.19E-03    0.37E-06
   3      9    10.208   116.013    0.19E-03    0.98E-05    0.18E-06
   3      9    10.208   108.937    0.19E-03    0.10E-04    0.18E-06
 Optimization of the real space projectors (new method)

 maximal supplied QI-value         = 24.76
 optimisation between [QCUT,QGAM] = [ 10.15, 20.30] = [ 28.85,115.39] Ry 
 Optimized for a Real-space Cutoff    1.51 Angstroem

   l    n(q)    QCUT    max X(q) W(low)/X(q) W(high)/X(q)  e(spline) 
   0      9    10.150    20.381    0.17E-03    0.18E-03    0.41E-06
   0      9    10.150    15.268    0.18E-03    0.20E-03    0.43E-06
   1      9    10.150     5.964    0.16E-03    0.20E-03    0.36E-06
   1      9    10.150     5.382    0.13E-03    0.16E-03    0.33E-06
 Optimization of the real space projectors (new method)

 maximal supplied QI-value         = 14.36
 optimisation between [QCUT,QGAM] = [ 10.20, 20.39] = [ 29.12,116.47] Ry 
 Optimized for a Real-space Cutoff    1.55 Angstroem

   l    n(q)    QCUT    max X(q) W(low)/X(q) W(high)/X(q)  e(spline) 
   2      9    10.197    66.195    0.14E-03    0.26E-03    0.16E-06
   2      9    10.197    64.643    0.14E-03    0.26E-03    0.16E-06
   0      9    10.197    95.520    0.52E-04    0.23E-04    0.61E-07
   0      9    10.197    63.403    0.50E-04    0.22E-04    0.58E-07
   1      9    10.197    19.961    0.18E-03    0.80E-04    0.90E-07
   1      9    10.197    13.289    0.15E-03    0.68E-04    0.78E-07
 Optimization of the real space projectors (new method)

 maximal supplied QI-value         = 24.76
 optimisation between [QCUT,QGAM] = [ 10.15, 20.30] = [ 28.85,115.39] Ry 
 Optimized for a Real-space Cutoff    1.51 Angstroem

   l    n(q)    QCUT    max X(q) W(low)/X(q) W(high)/X(q)  e(spline) 
   0      9    10.150    20.381    0.17E-03    0.18E-03    0.41E-06
   0      9    10.150    15.268    0.18E-03    0.20E-03    0.43E-06
   1      9    10.150     5.964    0.16E-03    0.20E-03    0.36E-06
   1      9    10.150     5.382    0.13E-03    0.16E-03    0.33E-06
 Optimization of the real space projectors (new method)

 maximal supplied QI-value         = 25.13
 optimisation between [QCUT,QGAM] = [ 10.05, 20.36] = [ 28.30,116.06] Ry 
 Optimized for a Real-space Cutoff    1.51 Angstroem

   l    n(q)    QCUT    max X(q) W(low)/X(q) W(high)/X(q)  e(spline) 
   0      9    10.053   115.676    0.19E-03    0.21E-03    0.38E-06
   0      9    10.053    87.132    0.19E-03    0.21E-03    0.38E-06
   1      9    10.053     4.429    0.87E-04    0.11E-03    0.39E-06
   1      9    10.053     2.733    0.59E-04    0.62E-04    0.43E-06
 Optimization of the real space projectors (new method)

 maximal supplied QI-value         = 24.76
 optimisation between [QCUT,QGAM] = [ 10.15, 20.30] = [ 28.85,115.39] Ry 
 Optimized for a Real-space Cutoff    1.51 Angstroem

   l    n(q)    QCUT    max X(q) W(low)/X(q) W(high)/X(q)  e(spline) 
   0      9    10.150    20.381    0.17E-03    0.18E-03    0.41E-06
   0      9    10.150    15.268    0.18E-03    0.20E-03    0.43E-06
   1      9    10.150     5.964    0.16E-03    0.20E-03    0.36E-06
   1      9    10.150     5.382    0.13E-03    0.16E-03    0.33E-06
  PAW_PBE Ce 23Dec2003                  :
 energy of atom  1       EATOM=-1063.0861
 kinetic energy error for atom=    0.0451 (will be added to EATOM!!)
  PAW_PBE O 08Apr2002                   :
 energy of atom  2       EATOM= -432.3788
 kinetic energy error for atom=    0.1156 (will be added to EATOM!!)
  PAW_PBE Pt 04Feb2005                  :
 energy of atom  3       EATOM= -729.1176
 kinetic energy error for atom=    0.0056 (will be added to EATOM!!)
  PAW_PBE O 08Apr2002                   :
 energy of atom  4       EATOM= -432.3788
 kinetic energy error for atom=    0.1156 (will be added to EATOM!!)
  PAW_PBE C 08Apr2002                   :
 energy of atom  5       EATOM= -147.1560
 kinetic energy error for atom=    0.0288 (will be added to EATOM!!)
  PAW_PBE O 08Apr2002                   :
 energy of atom  6       EATOM= -432.3788
 kinetic energy error for atom=    0.1156 (will be added to EATOM!!)
 
 
 POSCAR: CeO2-110-l3-p23:                        
  positions in direct lattice
  velocities in cartesian coordinates
 exchange correlation table for  LEXCH =        8
   RHO(1)=    0.500       N(1)  =     2000
   RHO(2)=  100.500       N(2)  =     4000

 VTST: version 3.1, (03/28/14)

 CHAIN: initializing optimizer
 
 OPT: Using VASP QUASI-newton optimizer
 CHAIN: Read ICHAIN            0
 
 POSCAR: CeO2-110-l3-p23:                        
  positions in direct lattice
  velocities in cartesian coordinates
 


--------------------------------------------------------------------------------------------------------


 ion  position               nearest neighbor table
   1  0.771  0.167  0.000-  36 2.38  40 2.38  39 2.38  44 2.38  52 2.38  54 2.38
   2  0.771  0.500  0.000-  36 2.38  38 2.38  40 2.38  46 2.38  58 2.38  59 2.38
   3  0.271  0.167  0.000-  41 2.38  45 2.38  43 2.38  37 2.38  50 2.38  51 2.38
   4  0.771  0.833  0.000-  38 2.38  46 2.38  44 2.38  39 2.38  49 2.38  53 2.38
   5  0.271  0.500  0.000-  41 2.38  42 2.38  45 2.38  47 2.38  56 2.38  57 2.38
   6  0.271  0.833  0.000-  42 2.38  47 2.38  43 2.38  37 2.38  48 2.38  55 2.38
   7  0.521  0.000  0.079-  66 2.37  49 2.38  50 2.38  54 2.38  48 2.38  44 2.38  43 2.38  60 2.39

   8  0.521  0.667  0.079-  48 2.38  49 2.38  56 2.38  59 2.38  38 2.38  42 2.38  61 2.38  62 2.39

   9  0.021  0.000  0.079-  64 2.37  65 2.38  53 2.38  55 2.38  51 2.38  52 2.38  37 2.38  39 2.38

  10  0.521  0.333  0.079-  68 2.37  70 2.37  50 2.38  54 2.38  56 2.38  59 2.38  36 2.38  45 2.38

  11  0.021  0.333  0.079-  69 2.37  52 2.38  51 2.38  58 2.38  57 2.38  41 2.38  40 2.38  71 2.38

  12  0.021  0.667  0.079-  63 2.37  55 2.38  53 2.38  58 2.38  57 2.38  47 2.38  46 2.38  67 2.38

  13  0.772  0.166  0.157-  72 2.34  79 2.35  52 2.38  69 2.38  70 2.38  60 2.38  54 2.39  65 2.40

  14  0.771  0.832  0.158-  62 2.35  65 2.37  60 2.37  63 2.37  53 2.39  49 2.39  83 2.40  73 2.41

  15  0.272  0.165  0.157-  78 2.35  82 2.36  64 2.37  71 2.38  50 2.38  68 2.38  66 2.38  51 2.39

  16  0.771  0.501  0.157-  77 2.34  58 2.37  59 2.37  75 2.37  63 2.38  70 2.38  69 2.38  62 2.39

  17  0.272  0.501  0.158-  80 2.36  81 2.37  67 2.37  61 2.37  68 2.38  56 2.39  71 2.39  57 2.40

  18  0.273  0.833  0.158-  76 2.34  61 2.36  66 2.37  67 2.37  48 2.38  64 2.38  74 2.38  55 2.40

  19  0.024  0.666  0.234-  67 2.34  81 2.34  83 2.34  63 2.37  75 2.37  76 2.37  86 2.40  91 2.49

  20  0.521  0.666  0.237-  80 2.34  74 2.35  77 2.36  61 2.38  62 2.39  92 2.39  73 2.41  89 2.45

  21  0.025  0.332  0.233-  93 2.31  71 2.33  69 2.35  81 2.36  82 2.37  94 2.39  79 2.40  75 2.44

  22  0.024  0.998  0.233-  64 2.34  65 2.34  76 2.36  85 2.36  82 2.37  79 2.38  95 2.40  83 2.41

  23  0.523  0.001  0.235-  60 2.35  78 2.35  66 2.36  90 2.36  72 2.36  73 2.38  74 2.41  88 2.46

  24  0.519  0.334  0.233-  68 2.33  70 2.35  80 2.36  84 2.37  78 2.38  72 2.41  77 2.42  87 2.42
                           107 3.17
  25  0.775  0.498  0.312-  84 2.29  75 2.31 104 2.32  91 2.34  89 2.34  77 2.36  93 2.39 108 3.30

  26  0.776  0.168  0.314- 102 2.32  88 2.33  93 2.34  79 2.39  85 2.40  72 2.41  84 2.46 103 2.49
                           107 3.11
  27  0.267  0.499  0.318-  87 2.41  94 2.44  86 2.44  81 2.46  92 2.48  80 2.52
  28  0.278  0.832  0.317-  86 2.33  90 2.34  92 2.34  97 2.38  95 2.39  74 2.39  98 2.40  76 2.48

  29  0.271  0.165  0.317-  87 2.33 100 2.33  94 2.35  95 2.37  90 2.42  82 2.43  99 2.44  78 2.46
                           107 3.17
  30  0.774  0.834  0.317-  96 2.32 101 2.34  85 2.36  73 2.38  83 2.40  88 2.42  89 2.43  91 2.46

  31  0.027  0.002  0.385-  95 2.24 100 2.26 102 2.28  85 2.28 101 2.32  97 2.35
  32  0.521  0.996  0.388-  98 2.20  99 2.22  96 2.26  88 2.27  90 2.27 107 3.14
  33  0.029  0.682  0.388-  97 2.21  86 2.23 106 2.23  91 2.23 101 2.24
  34  0.533  0.681  0.393- 105 2.12  96 2.27  89 2.30  98 2.32  92 2.34 109 2.44
  35  0.014  0.324  0.386- 102 2.25  94 2.25 106 2.29  93 2.29 104 2.34 100 2.38
  36  0.646  0.333  0.000-   1 2.38   2 2.38  10 2.38
  37  0.146  0.000  0.000-   3 2.38   6 2.38   9 2.38
  38  0.646  0.667  0.000-   4 2.38   2 2.38   8 2.38
  39  0.896  0.000  0.000-   1 2.38   4 2.38   9 2.38
  40  0.896  0.333  0.000-   1 2.38   2 2.38  11 2.38
  41  0.146  0.333  0.000-   3 2.38   5 2.38  11 2.38
  42  0.396  0.667  0.000-   6 2.38   5 2.38   8 2.38
  43  0.396  0.000  0.000-   3 2.38   6 2.38   7 2.38
  44  0.646  0.000  0.000-   1 2.38   4 2.38   7 2.38
  45  0.396  0.333  0.000-   3 2.38   5 2.38  10 2.38
  46  0.896  0.667  0.000-   4 2.38   2 2.38  12 2.38
  47  0.146  0.667  0.000-   6 2.38   5 2.38  12 2.38
  48  0.396  0.833  0.079-   8 2.38   7 2.38   6 2.38  18 2.38
  49  0.646  0.833  0.079-   8 2.38   7 2.38   4 2.38  14 2.39
  50  0.396  0.167  0.079-  15 2.38  10 2.38   7 2.38   3 2.38
  51  0.146  0.167  0.079-  11 2.38   9 2.38   3 2.38  15 2.39
  52  0.896  0.167  0.079-  11 2.38   9 2.38   1 2.38  13 2.38
  53  0.896  0.833  0.079-  12 2.38   9 2.38   4 2.38  14 2.39
  54  0.646  0.167  0.079-  10 2.38   7 2.38   1 2.38  13 2.39
  55  0.146  0.833  0.079-  12 2.38   9 2.38   6 2.38  18 2.40
  56  0.396  0.500  0.079-   8 2.38  10 2.38   5 2.38  17 2.39
  57  0.146  0.500  0.079-  11 2.38  12 2.38   5 2.38  17 2.40
  58  0.896  0.500  0.079-  16 2.37  12 2.38  11 2.38   2 2.38
  59  0.646  0.500  0.079-  16 2.37  10 2.38   8 2.38   2 2.38
  60  0.647  0.998  0.157-  23 2.35  14 2.37  13 2.38   7 2.39
  61  0.397  0.667  0.157-  18 2.36  17 2.37   8 2.38  20 2.38
  62  0.647  0.669  0.158-  14 2.35  16 2.39  20 2.39   8 2.39
  63  0.897  0.667  0.157-  19 2.37  12 2.37  14 2.37  16 2.38
  64  0.147  1.000  0.157-  22 2.34  15 2.37   9 2.37  18 2.38
  65  0.897  0.997  0.157-  22 2.34  14 2.37   9 2.38  13 2.40
  66  0.398  0.999  0.157-  23 2.36   7 2.37  18 2.37  15 2.38
  67  0.147  0.667  0.157-  19 2.34  17 2.37  18 2.37  12 2.38
  68  0.396  0.333  0.157-  24 2.33  10 2.37  17 2.38  15 2.38
  69  0.897  0.334  0.157-  21 2.35  11 2.37  16 2.38  13 2.38
  70  0.647  0.334  0.157-  24 2.35  10 2.37  16 2.38  13 2.38
  71  0.148  0.333  0.157-  21 2.33  15 2.38  11 2.38  17 2.39
  72  0.648  0.166  0.235-  13 2.34  23 2.36  24 2.41  26 2.41
  73  0.648  0.834  0.239-  30 2.38  23 2.38  20 2.41  14 2.41
  74  0.398  0.832  0.236-  20 2.35  18 2.38  28 2.39  23 2.41
  75  0.896  0.502  0.235-  25 2.31  19 2.37  16 2.37  21 2.44
  76  0.148  0.833  0.235-  18 2.34  22 2.36  19 2.37  28 2.48
  77  0.648  0.502  0.234-  16 2.34  20 2.36  25 2.36  24 2.42
  78  0.397  0.165  0.235-  15 2.35  23 2.35  24 2.38  29 2.46
  79  0.898  0.164  0.234-  13 2.35  22 2.38  26 2.39  21 2.40
  80  0.399  0.501  0.235-  20 2.34  17 2.36  24 2.36  27 2.52
  81  0.144  0.500  0.235-  19 2.34  21 2.36  17 2.37  27 2.46
  82  0.148  0.165  0.235-  15 2.36  21 2.37  22 2.37  29 2.43
  83  0.898  0.828  0.237-  19 2.34  30 2.40  14 2.40  22 2.41
  84  0.649  0.342  0.310- 107 2.02  25 2.29  24 2.37  26 2.46
  85  0.900  0.999  0.312-  31 2.28  30 2.36  22 2.36  26 2.40
  86  0.146  0.675  0.315-  33 2.23  28 2.33  19 2.40  27 2.44
  87  0.392  0.329  0.313- 107 2.01  29 2.33  27 2.41  24 2.42
  88  0.651  0.006  0.317-  32 2.27  26 2.33  30 2.42  23 2.46
  89  0.651  0.661  0.317-  34 2.30  25 2.34  30 2.43  20 2.45
  90  0.400  0.997  0.313-  32 2.27  28 2.34  23 2.36  29 2.42
  91  0.900  0.659  0.319-  33 2.23  25 2.34  30 2.46  19 2.49
  92  0.403  0.669  0.318-  34 2.34  28 2.34  20 2.39  27 2.48
  93  0.900  0.331  0.309-  35 2.29  21 2.31  26 2.34  25 2.39
  94  0.142  0.326  0.315-  35 2.25  29 2.35  21 2.39  27 2.44
  95  0.150  0.997  0.313-  31 2.24  29 2.37  28 2.39  22 2.40
  96  0.648  0.843  0.392-  32 2.26  34 2.27  30 2.32
  97  0.147  0.836  0.394-  33 2.21  31 2.35  28 2.38
  98  0.407  0.842  0.395-  32 2.20  34 2.32  28 2.40
  99  0.408  0.154  0.394- 107 2.01  32 2.22  29 2.44
 100  0.143  0.161  0.392-  31 2.26  29 2.33  35 2.38
 101  0.907  0.837  0.391-  33 2.24  31 2.32  30 2.34
 102  0.906  0.161  0.389-  35 2.25  31 2.28  26 2.32
 103  0.671  0.212  0.401- 107 1.99 108 2.20  26 2.49
 104  0.839  0.436  0.396- 108 2.06  25 2.32  35 2.34
 105  0.650  0.563  0.432- 108 2.00  34 2.12
 106  0.099  0.503  0.392-  33 2.23  35 2.29
 107  0.527  0.258  0.357- 103 1.99  99 2.01  87 2.01  84 2.02 108 2.81  26 3.11  32 3.14  29 3.17
                            24 3.17
 108  0.670  0.393  0.427- 111 1.91 105 2.00 104 2.06 103 2.20 107 2.81  25 3.30
 109  0.393  0.521  0.406- 110 1.36  34 2.44
 110  0.387  0.439  0.445- 109 1.36 111 1.89
 111  0.528  0.362  0.470- 112 1.18 110 1.89 108 1.91
 112  0.494  0.311  0.508- 111 1.18
 

IMPORTANT INFORMATION: All symmetrisations will be switched off!
NOSYMM: (Re-)initialisation of all symmetry stuff for point group C_1.

 
 
 KPOINTS: CeO2-111-3x3-9layers         ! Comment  

Automatic generation of k-mesh.
Space group operators:
 irot       det(A)        alpha          n_x          n_y          n_z        tau_x        tau_y        tau_z
    1     1.000000     0.000000     1.000000     0.000000     0.000000     0.000000     0.000000     0.000000
 
 Subroutine IBZKPT returns following result:
 ===========================================
 
 Found      1 irreducible k-points:
 
 Following reciprocal coordinates:
            Coordinates               Weight
  0.000000  0.000000  0.000000      1.000000
 
 Following cartesian coordinates:
            Coordinates               Weight
  0.000000  0.000000  0.000000      1.000000
 


--------------------------------------------------------------------------------------------------------




 Dimension of arrays:
   k-points           NKPTS =      1   k-points in BZ     NKDIM =      1   number of bands    NBANDS=    592
   number of dos      NEDOS =    301   number of ions     NIONS =    112
   non local maximal  LDIM  =      8   non local SUM 2l+1 LMDIM =     32
   total plane-waves  NPLWV = 933120
   max r-space proj   IRMAX =   5592   max aug-charges    IRDMAX= 143303
   dimension x,y,z NGX =    72 NGY =   80 NGZ =  162
   dimension x,y,z NGXF=   144 NGYF=  160 NGZF=  324
   support grid    NGXF=   288 NGYF=  320 NGZF=  648
   ions per type =              35  71   2   2   1   1
 NGX,Y,Z   is equivalent  to a cutoff of  10.90, 11.42, 10.90 a.u.
 NGXF,Y,Z  is equivalent  to a cutoff of  21.80, 22.84, 21.80 a.u.


 I would recommend the setting:
   dimension x,y,z NGX =    72 NGY =   76 NGZ =  161
 SYSTEM =  unknown system                          
 POSCAR =  CeO2-110-l3-p23:                        

 Startparameter for this run:
   NWRITE =      2    write-flag & timer
   PREC   = accura    normal or accurate (medium, high low for compatibility)
   ISTART =      1    job   : 0-new  1-cont  2-samecut
   ICHARG =      0    charge: 1-file 2-atom 10-const
   ISPIN  =      2    spin polarized calculation?
   LNONCOLLINEAR =      F non collinear calculations
   LSORBIT =      F    spin-orbit coupling
   INIWAV =      1    electr: 0-lowe 1-rand  2-diag
   LASPH  =      T    aspherical Exc in radial PAW
   METAGGA=      F    non-selfconsistent MetaGGA calc.

 Electronic Relaxation 1
   ENCUT  =  400.0 eV  29.40 Ry    5.42 a.u.  17.91 18.99 40.29*2*pi/ulx,y,z
   ENINI  =  400.0     initial cutoff
   ENAUG  =  644.9 eV  augmentation charge cutoff
   NELM   =    100;   NELMIN=  2; NELMDL=  0     # of ELM steps 
   EDIFF  = 0.1E-03   stopping-criterion for ELM
   LREAL  =      T    real-space projection
   NLSPLINE    = F    spline interpolate recip. space projectors
   LCOMPAT=      F    compatible to vasp.4.4
   GGA_COMPAT  = T    GGA compatible to vasp.4.4-vasp.4.6
   LMAXPAW     = -100 max onsite density
   LMAXMIX     =    6 max onsite mixed and CHGCAR
   VOSKOWN=      0    Vosko Wilk Nusair interpolation
   ROPT   =   -0.00025  -0.00025  -0.00025  -0.00025
   ROPT   =   -0.00025  -0.00025
 Ionic relaxation
   EDIFFG = -.5E-01   stopping-criterion for IOM
   NSW    =     50    number of steps for IOM
   NBLOCK =      1;   KBLOCK =     50    inner block; outer block 
   IBRION =      1    ionic relax: 0-MD 1-quasi-New 2-CG
   NFREE  =      0    steps in history (QN), initial steepest desc. (CG)
   ISIF   =      2    stress and relaxation
   IWAVPR =     11    prediction:  0-non 1-charg 2-wave 3-comb
   ISYM   =      0    0-nonsym 1-usesym 2-fastsym
   LCORR  =      T    Harris-Foulkes like correction to forces

   POTIM  = 0.1000    time-step for ionic-motion
   TEIN   =    0.0    initial temperature
   TEBEG  =    0.0;   TEEND  =   0.0 temperature during run
   SMASS  =  -3.00    Nose mass-parameter (am)
   estimated Nose-frequenzy (Omega)   =  0.10E-29 period in steps =****** mass=  -0.276E-26a.u.
   SCALEE = 1.0000    scale energy and forces
   NPACO  =    256;   APACO  = 16.0  distance and # of slots for P.C.
   PSTRESS=    0.0 pullay stress

  Mass of Ions in am
   POMASS = 140.12 16.00195.08 16.00 12.01 16.00
  Ionic Valenz
   ZVAL   =  12.00  6.00 10.00  6.00  4.00  6.00
  Atomic Wigner-Seitz radii
   RWIGS  =  -1.00 -1.00 -1.00 -1.00 -1.00 -1.00
  virtual crystal weights 
   VCA    =   1.00  1.00  1.00  1.00  1.00  1.00
   NELECT =     888.0000    total number of electrons
   NUPDOWN=      -1.0000    fix difference up-down

 DOS related values:
   EMIN   =  10.00;   EMAX   =-10.00  energy-range for DOS
   EFERMI =   0.00
   ISMEAR =     0;   SIGMA  =   0.05  broadening in eV -4-tet -1-fermi 0-gaus

 Electronic relaxation 2 (details)
   IALGO  =     68    algorithm
   LDIAG  =      T    sub-space diagonalisation (order eigenvalues)
   LSUBROT=      F    optimize rotation matrix (better conditioning)
   TURBO    =      0    0=normal 1=particle mesh
   IRESTART =      0    0=no restart 2=restart with 2 vectors
   NREBOOT  =      0    no. of reboots
   NMIN     =      0    reboot dimension
   EREF     =   0.00    reference energy to select bands
   IMIX   =      4    mixing-type and parameters
     AMIX     =   0.20;   BMIX     =  0.00
     AMIX_MAG =   0.80;   BMIX_MAG =  0.00
     AMIN     =   0.10
     WC   =   100.;   INIMIX=   1;  MIXPRE=   1;  MAXMIX= -45

 Intra band minimization:
   WEIMIN = 0.0010     energy-eigenvalue tresh-hold
   EBREAK =  0.42E-07  absolut break condition
   DEPER  =   0.30     relativ break condition  

   TIME   =   0.40     timestep for ELM

  volume/ion in A,a.u.               =      28.21       190.35
  Fermi-wavevector in a.u.,A,eV,Ry     =   1.072400  2.026543 15.647281  1.150043
  Thomas-Fermi vector in A             =   2.208169
 
 Write flags
   LWAVE  =      T    write WAVECAR
   LCHARG =      T    write CHGCAR
   LVTOT  =      F    write LOCPOT, total local potential
   LVHAR  =      F    write LOCPOT, Hartree potential only
   LELF   =      F    write electronic localiz. function (ELF)
   LORBIT =     11    0 simple, 1 ext, 2 COOP (PROOUT)


 Dipole corrections
   LMONO  =      F    monopole corrections only (constant potential shift)
   LDIPOL =      T    correct potential (dipole corrections)
   IDIPOL =      3    1-x, 2-y, 3-z, 4-all directions 
   EPSILON=  1.0000000 bulk dielectric constant

 LDA+U is selected, type is set to LDAUTYPE =  2
   angular momentum for each species LDAUL =     3   -1   -1   -1   -1   -1
   U (eV)           for each species LDAUU =   4.5  0.0  0.0  0.0  0.0  0.0
   J (eV)           for each species LDAUJ =   0.0  0.0  0.0  0.0  0.0  0.0
 Exchange correlation treatment:
   GGA     =    --    GGA type
   LEXCH   =     8    internal setting for exchange type
   VOSKOWN=      0    Vosko Wilk Nusair interpolation
   LHFCALC =     F    Hartree Fock is set to
   LHFONE  =     F    Hartree Fock one center treatment
   AEXX    =    0.0000 exact exchange contribution

 Linear response parameters
   LEPSILON=     F    determine dielectric tensor
   LRPA    =     F    only Hartree local field effects (RPA)
   LNABLA  =     F    use nabla operator in PAW spheres
   LVEL    =     F    velocity operator in full k-point grid
   LINTERFAST=   F  fast interpolation
   KINTER  =     0    interpolate to denser k-point grid
   CSHIFT  =0.1000    complex shift for real part using Kramers Kronig
   OMEGAMAX=  -1.0    maximum frequency
   DEG_THRESHOLD= 0.2000000E-02 threshold for treating states as degnerate
   RTIME   =    0.100 relaxation time in fs

 Orbital magnetization related:
   ORBITALMAG=     F  switch on orbital magnetization
   LCHIMAG   =     F  perturbation theory with respect to B field
   DQ        =  0.001000  dq finite difference perturbation B field



--------------------------------------------------------------------------------------------------------


 quasi-Newton-method for relaxation of ions
   using selective dynamics as specified on POSCAR
 charge density and potential will be updated during run
 spin polarized calculation
 RMM-DIIS sequential band-by-band and
  variant of blocked Davidson during initial phase
 perform sub-space diagonalisation
    before iterative eigenvector-optimisation
 modified Broyden-mixing scheme, WC =      100.0
 initial mixing is a Kerker type mixing with AMIX =  0.2000 and BMIX =      0.0010
 Hartree-type preconditioning will be used
 using additional bands          148
 real space projection scheme for non local part
 use partial core corrections
 calculate Harris-corrections to forces 
   (improved forces if not selfconsistent)
 use gradient corrections 
 use of overlap-Matrix (Vanderbilt PP)
 Gauss-broadening in eV      SIGMA  =   0.05


--------------------------------------------------------------------------------------------------------


  energy-cutoff  :      400.00
  volume of cell :     3159.12
      direct lattice vectors                 reciprocal lattice vectors
    10.980000000  0.000000000  0.000000000     0.091074681  0.000000000  0.000000000
     0.000000000 11.646048686  0.000000000     0.000000000  0.085866033  0.000000000
     0.000000000  0.000000000 24.705040572     0.000000000  0.000000000  0.040477570

  length of vectors
    10.980000000 11.646048686 24.705040572     0.091074681  0.085866033  0.040477570


 
 old parameters found on file WAVECAR:
  energy-cutoff  :      400.00
  volume of cell :     3159.12
      direct lattice vectors                 reciprocal lattice vectors
    10.980000000  0.000000000  0.000000000     0.091074681  0.000000000  0.000000000
     0.000000000 11.646048686  0.000000000     0.000000000  0.085866033  0.000000000
     0.000000000  0.000000000 24.705040572     0.000000000  0.000000000  0.040477570

  length of vectors

 
 k-points in units of 2pi/SCALE and weight: CeO2-111-3x3-9layers         ! Comment  
   0.00000000  0.00000000  0.00000000       1.000
 
 k-points in reciprocal lattice and weights: CeO2-111-3x3-9layers         ! Comment  
   0.00000000  0.00000000  0.00000000       1.000
 
 position of ions in fractional coordinates (direct lattice) 
   0.77120274  0.16666677  0.00000000
   0.77120274  0.50000010  0.00000000
   0.27120274  0.16666677  0.00000000
   0.77120274  0.83333343  0.00000000
   0.27120274  0.50000010  0.00000000
   0.27120274  0.83333343  0.00000000
   0.52120274  0.00000010  0.07856729
   0.52120274  0.66666677  0.07856729
   0.02120274  0.00000010  0.07856729
   0.52120274  0.33333343  0.07856729
   0.02120274  0.33333343  0.07856729
   0.02120274  0.66666677  0.07856729
   0.77176664  0.16632162  0.15740380
   0.77127673  0.83217173  0.15793230
   0.27225827  0.16549865  0.15745908
   0.77129201  0.50073777  0.15692054
   0.27230091  0.50078848  0.15792270
   0.27270551  0.83257977  0.15765389
   0.02398057  0.66639958  0.23440118
   0.52104267  0.66576052  0.23663546
   0.02503420  0.33170869  0.23331039
   0.02362265  0.99800785  0.23349929
   0.52318856  0.00116534  0.23490126
   0.51925727  0.33361232  0.23340130
   0.77503042  0.49818091  0.31160787
   0.77596943  0.16808766  0.31427774
   0.26669357  0.49943640  0.31834534
   0.27804596  0.83230838  0.31714554
   0.27106095  0.16508474  0.31685220
   0.77433082  0.83412945  0.31708043
   0.02656191  0.00161240  0.38508999
   0.52130059  0.99609451  0.38768574
   0.02851091  0.68244569  0.38781721
   0.53263472  0.68125542  0.39307497
   0.01431266  0.32438583  0.38607721
   0.64620274  0.33333343  0.00000000
   0.14620274  0.00000010  0.00000000
   0.64620274  0.66666677  0.00000000
   0.89620274  0.00000010  0.00000000
   0.89620274  0.33333343  0.00000000
   0.14620274  0.33333343  0.00000000
   0.39620274  0.66666677  0.00000000
   0.39620274  0.00000010  0.00000000
   0.64620274  0.00000010  0.00000000
   0.39620274  0.33333343  0.00000000
   0.89620274  0.66666677  0.00000000
   0.14620274  0.66666677  0.00000000
   0.39620274  0.83333343  0.07856729
   0.64620274  0.83333343  0.07856729
   0.39620274  0.16666677  0.07856729
   0.14620274  0.16666677  0.07856729
   0.89620274  0.16666677  0.07856729
   0.89620274  0.83333343  0.07856729
   0.64620274  0.16666677  0.07856729
   0.14620274  0.83333343  0.07856729
   0.39620274  0.50000010  0.07856729
   0.14620274  0.50000010  0.07856729
   0.89620274  0.50000010  0.07856729
   0.64620274  0.50000010  0.07856729
   0.64739131  0.99847217  0.15743253
   0.39701131  0.66708889  0.15738760
   0.64668295  0.66853849  0.15763349
   0.89698675  0.66692574  0.15694191
   0.14747519  0.99959222  0.15654239
   0.89676003  0.99733140  0.15727604
   0.39780003  0.99868260  0.15739201
   0.14705831  0.66661837  0.15710408
   0.39608843  0.33314746  0.15680274
   0.89660725  0.33371983  0.15701700
   0.64658861  0.33358970  0.15688826
   0.14809431  0.33264205  0.15669392
   0.64832718  0.16618099  0.23473811
   0.64814156  0.83390998  0.23870457
   0.39830633  0.83150690  0.23632502
   0.89617442  0.50229948  0.23534006
   0.14844263  0.83305383  0.23475958
   0.64807861  0.50240597  0.23442883
   0.39716758  0.16477258  0.23461510
   0.89802200  0.16409805  0.23425327
   0.39890170  0.50108579  0.23491597
   0.14411971  0.50022828  0.23488952
   0.14795153  0.16466437  0.23526291
   0.89764674  0.82845563  0.23710274
   0.64870996  0.34158746  0.31004903
   0.89983543  0.99861096  0.31183755
   0.14646015  0.67542287  0.31464694
   0.39151775  0.32929879  0.31338894
   0.65098611  0.00614693  0.31650944
   0.65147149  0.66103696  0.31718870
   0.40009116  0.99685580  0.31325448
   0.90047433  0.65942702  0.31867234
   0.40316225  0.66931061  0.31812638
   0.90039268  0.33078826  0.30863123
   0.14214125  0.32636776  0.31470533
   0.14961249  0.99731648  0.31280567
   0.64813536  0.84301886  0.39218731
   0.14698063  0.83577921  0.39389180
   0.40691090  0.84171020  0.39545754
   0.40846709  0.15385906  0.39444734
   0.14278766  0.16071420  0.39217955
   0.90736518  0.83732126  0.39114006
   0.90560266  0.16088554  0.38852583
   0.67069224  0.21249520  0.40112077
   0.83879834  0.43615619  0.39634751
   0.64983775  0.56303950  0.43214520
   0.09899223  0.50327070  0.39215087
   0.52683465  0.25800462  0.35683027
   0.66971738  0.39307095  0.42666266
   0.39310206  0.52101796  0.40601623
   0.38669671  0.43913728  0.44519061
   0.52822816  0.36243020  0.46959357
   0.49359613  0.31148422  0.50773970
 
 position of ions in cartesian coordinates  (Angst):
   8.46780604  1.94100927  0.00000000
   8.46780604  5.82302550  0.00000000
   2.97780604  1.94100927  0.00000000
   8.46780604  9.70504173  0.00000000
   2.97780604  5.82302550  0.00000000
   2.97780604  9.70504173  0.00000000
   5.72280604  0.00000116  1.94100811
   5.72280604  7.76403361  1.94100811
   0.23280604  0.00000116  1.94100811
   5.72280604  3.88201739  1.94100811
   0.23280604  3.88201739  1.94100811
   0.23280604  7.76403361  1.94100811
   8.47399768  1.93698967  3.88866737
   8.46861845  9.69151249  3.90172393
   2.98939580  1.92740537  3.89003291
   8.46878623  5.83161647  3.87672828
   2.98986394  5.83220706  3.90148676
   2.99430649  9.69626448  3.89484564
   0.26330661  7.76092191  5.79089057
   5.72104848  7.75347938  5.84608860
   0.27487553  3.86309551  5.76394274
   0.25937668 11.62284800  5.76860953
   5.74461039  0.01357161  5.80324521
   5.70144484  3.88526531  5.76618867
   8.50983405  5.80183917  7.69828499
   8.52014431  1.95755708  7.76424428
   2.92829543  5.81646064  7.86473445
   3.05294469  9.69310397  7.83509349
   2.97624920  1.92258494  7.82784643
   8.50215243  9.71431222  7.83348493
   0.29164973  0.01877805  9.51366377
   5.72388052 11.60056521  9.57779199
   0.31304982  7.94779573  9.58103985
   5.84832924  7.93393381  9.71093301
   0.15715304  3.77781316  9.53805322
   7.09530604  3.88201739  0.00000000
   1.60530604  0.00000116  0.00000000
   7.09530604  7.76403361  0.00000000
   9.84030604  0.00000116  0.00000000
   9.84030604  3.88201739  0.00000000
   1.60530604  3.88201739  0.00000000
   4.35030604  7.76403361  0.00000000
   4.35030604  0.00000116  0.00000000
   7.09530604  0.00000116  0.00000000
   4.35030604  3.88201739  0.00000000
   9.84030604  7.76403361  0.00000000
   1.60530604  7.76403361  0.00000000
   4.35030604  9.70504173  1.94100811
   7.09530604  9.70504173  1.94100811
   4.35030604  1.94100927  1.94100811
   1.60530604  1.94100927  1.94100811
   9.84030604  1.94100927  1.94100811
   9.84030604  9.70504173  1.94100811
   7.09530604  1.94100927  1.94100811
   1.60530604  9.70504173  1.94100811
   4.35030604  5.82302550  1.94100811
   1.60530604  5.82302550  1.94100811
   9.84030604  5.82302550  1.94100811
   7.09530604  5.82302550  1.94100811
   7.10835655 11.62825545  3.88937698
   4.35918416  7.76894964  3.88826707
   7.10057878  7.78583176  3.89434165
   9.84891450  7.76704959  3.87725632
   1.61927757 11.64129964  3.86738603
   9.84642518 11.61497004  3.88551088
   4.36784428 11.63070616  3.88837603
   1.61470028  7.76347003  3.88126258
   4.34905091  3.87985150  3.87381813
   9.84474763  3.88651745  3.87911145
   7.09954291  3.88500189  3.87593071
   1.62607547  3.87396545  3.87112960
   7.11863249  1.93535186  5.79921465
   7.11659430  9.71175625  5.89720599
   4.37340349  9.68376982  5.83841918
   9.83999508  5.84980416  5.81408567
   1.62990005  9.70178547  5.79974497
   7.11590310  5.85104439  5.79157364
   4.36090008  1.91894948  5.79617547
   9.86028154  1.91109385  5.78723663
   4.37994068  5.83566952  5.80360858
   1.58243442  5.82568289  5.80295500
   1.62450781  1.91768929  5.81217985
   9.85616118  9.64823463  5.85763291
   7.12283541  3.97814424  7.65977387
   9.88019303 11.62987181  7.70395935
   1.60813246  7.86600759  7.77336540
   4.29886485  3.83502970  7.74228657
   7.14782750  0.07158740  7.81937854
   7.15315698  7.69846858  7.83615970
   4.39300094 11.60943114  7.73896459
   9.88720820  7.67971920  7.87281305
   4.42672149  7.79482401  7.85932522
   9.88631161  3.85237619  7.62474706
   1.56071088  3.80089479  7.77480805
   1.64274518 11.61479627  7.72787683
   7.11652627  9.81783864  9.68900347
   1.61384729  9.73352536  9.73111295
   4.46788169  9.80259793  9.76979468
   4.48496870  1.79185014  9.74483752
   1.56780849  1.87168545  9.68881178
   9.96286967  9.75148414  9.66313110
   9.94351724  1.87368085  9.59854638
   7.36420075  2.47472943  9.90970492
   9.21000582  5.07949625  9.79178128
   7.13521845  6.55718545 10.67616461
   1.08693470  5.86111512  9.68810312
   5.78464444  3.00473439  8.81550625
   7.35349688  4.57772343 10.54071840
   4.31626061  6.06780058 10.03064743
   4.24592992  5.11421409 10.99845200
   5.79994515  4.22087973 11.60132812
   5.41968551  3.62756041 12.54372977
 


--------------------------------------------------------------------------------------------------------


 use parallel FFT for wavefunctions z direction half grid
 k-point  1 :   0.0000 0.0000 0.0000  plane waves:   28608

 maximum and minimum number of plane-waves per node :      4774     4761

 maximum number of plane-waves:     28608
 maximum index in each direction: 
   IXMAX=   17   IYMAX=   18   IZMAX=   40
   IXMIN=  -17   IYMIN=  -18   IZMIN=    0

 NGX is ok and might be reduce to  70
 NGY is ok and might be reduce to  74
 NGZ is ok and might be reduce to 162

 real space projection operators:
  total allocation   :      67645.17 KBytes
  max/ min on nodes  :      11509.84      11137.19


 parallel 3D FFT for wavefunctions:
    minimum data exchange during FFTs selected (reduces bandwidth)
 parallel 3D FFT for charge:
    minimum data exchange during FFTs selected (reduces bandwidth)


 total amount of memory used by VASP on root node   112387. kBytes
========================================================================

   base      :      30000. kBytes
   nonlr-proj:      13805. kBytes
   fftplans  :      26017. kBytes
   grid      :      29982. kBytes
   one-center:        933. kBytes
   wavefun   :      11650. kBytes
 
     INWAV:  cpu time    1.64: real time    1.67
 Broyden mixing: mesh for mixing (old mesh)
   NGX = 35   NGY = 37   NGZ = 81
  (NGX  =144   NGY  =160   NGZ  =324)
  gives a total of 104895 points

 charge density for first step will be calculated from the start-wavefunctions


--------------------------------------------------------------------------------------------------------


 Maximum index for non-local projection operator          912
 Maximum index for augmentation-charges         3296 (set IRDMAX)


--------------------------------------------------------------------------------------------------------


 initial charge from wavefunction
 First call to EWALD:  gamma=   0.121
 Maximum number of real-space cells 4x 3x 2
 Maximum number of reciprocal cells 2x 2x 4

 FEWALD executed in parallel
    FEWALD:  cpu time    0.01: real time    0.01


----------------------------------------- Iteration    1(   1)  ---------------------------------------


    POTLOK:  cpu time    0.34: real time    0.34
    SETDIJ:  cpu time    2.62: real time    2.62
     EDDAV:  cpu time    7.10: real time    7.11
       DOS:  cpu time    0.00: real time    0.00
    CHARGE:  cpu time    1.15: real time    1.15
    MIXING:  cpu time    0.01: real time    0.01
    --------------------------------------------
      LOOP:  cpu time   11.23: real time   11.25

 eigenvalue-minimisations  :  1464
 total energy-change (2. order) :-0.8825435E+03  (-0.5518838E-04)
 number of electron     887.9999994 magnetization       1.9316470
 augmentation part       -8.4096811 magnetization       1.0658562

 DIPCOR: dipole corrections for dipol
 direction  3 min pos   229,
 dipolmoment           0.000000      0.000000      1.176029 electrons x Angstroem
 Tr[quadrupol]    -19721.158592

 energy correction for charged system         0.000000 eV
 dipol+quadrupol energy correction           -0.039619 eV
 added-field ion interaction          0.617704 eV  (added to PSCEN)


 Broyden mixing:
  rms(total) = 0.15855E-01    rms(broyden)= 0.15784E-01
  rms(prec ) = 0.16619E-01
  weight for this iteration     100.00

 Free energy of the ion-electron system (eV)
  ---------------------------------------------------
  alpha Z        PSCENC =      2267.03980241
  Ewald energy   TEWEN  =    249090.09421417
  -Hartree energ DENC   =   -317161.82435996
  -exchange      EXHF   =         0.00000000
  -V(xc)+E(xc)   XCENC  =      2334.53338116
  PAW double counting   =     67919.62957245   -67065.20936757
  entropy T*S    EENTRO =        -0.00876026
  eigenvalues    EBANDS =     -9066.06112854
  atomic energy  EATOM  =     70799.26311930
  ---------------------------------------------------
  free energy    TOTEN  =      -882.54352684 eV

  energy without entropy =     -882.53476658  energy(sigma->0) =     -882.53914671


--------------------------------------------------------------------------------------------------------




----------------------------------------- Iteration    1(   2)  ---------------------------------------


    POTLOK:  cpu time    0.34: real time    0.34
    SETDIJ:  cpu time    2.67: real time    2.67
    EDDIAG:  cpu time    1.60: real time    1.61
  RMM-DIIS:  cpu time    4.27: real time    4.27
    ORTHCH:  cpu time    0.20: real time    0.20
       DOS:  cpu time    0.00: real time    0.00
    CHARGE:  cpu time    1.15: real time    1.15
    MIXING:  cpu time    0.01: real time    0.01
    --------------------------------------------
      LOOP:  cpu time   10.24: real time   10.26

 eigenvalue-minimisations  :  1780
 total energy-change (2. order) :-0.5689011E-03  (-0.1552937E-03)
 number of electron     887.9999994 magnetization       1.9368057
 augmentation part       -8.3899059 magnetization       1.0458263

 DIPCOR: dipole corrections for dipol
 direction  3 min pos   229,
 dipolmoment           0.000000      0.000000      1.182143 electrons x Angstroem
 Tr[quadrupol]    -19721.107366

 energy correction for charged system         0.000000 eV
 dipol+quadrupol energy correction           -0.040032 eV
 added-field ion interaction          0.620915 eV  (added to PSCEN)


 Broyden mixing:
  rms(total) = 0.57872E-01    rms(broyden)= 0.57601E-01
  rms(prec ) = 0.60328E-01
  weight for this iteration     100.00

 eigenvalues of (default mixing * dielectric matrix)
  average eigenvalue GAMMA=   0.2074
  0.2074

 Free energy of the ion-electron system (eV)
  ---------------------------------------------------
  alpha Z        PSCENC =      2267.04260091
  Ewald energy   TEWEN  =    249090.09421417
  -Hartree energ DENC   =   -317160.53499824
  -exchange      EXHF   =         0.00000000
  -V(xc)+E(xc)   XCENC  =      2334.53355663
  PAW double counting   =     67919.42682912   -67065.01370243
  entropy T*S    EENTRO =        -0.00659854
  eigenvalues    EBANDS =     -9067.34911667
  atomic energy  EATOM  =     70799.26311930
  ---------------------------------------------------
  free energy    TOTEN  =      -882.54409574 eV

  energy without entropy =     -882.53749720  energy(sigma->0) =     -882.54079647


--------------------------------------------------------------------------------------------------------




----------------------------------------- Iteration    1(   3)  ---------------------------------------


    POTLOK:  cpu time    0.41: real time    0.41
    SETDIJ:  cpu time    2.61: real time    2.61
    EDDIAG:  cpu time    1.65: real time    1.66
  RMM-DIIS:  cpu time    3.49: real time    3.50
    ORTHCH:  cpu time    0.22: real time    0.22
       DOS:  cpu time    0.00: real time    0.00
    CHARGE:  cpu time    1.18: real time    1.18
    MIXING:  cpu time    0.01: real time    0.01
    --------------------------------------------
      LOOP:  cpu time    9.57: real time    9.59

 eigenvalue-minimisations  :  1401
 total energy-change (2. order) : 0.1269848E-02  (-0.5025943E-04)
 number of electron     887.9999994 magnetization       1.9396895
 augmentation part       -8.4007692 magnetization       1.0615538

 DIPCOR: dipole corrections for dipol
 direction  3 min pos   232,
 dipolmoment           0.000000      0.000000      1.178653 electrons x Angstroem
 Tr[quadrupol]    -19721.680222

 energy correction for charged system         0.000000 eV
 dipol+quadrupol energy correction           -0.039796 eV
 added-field ion interaction         14.334715 eV  (added to PSCEN)


 Broyden mixing:
  rms(total) = 0.85959E-02    rms(broyden)= 0.80350E-02
  rms(prec ) = 0.85163E-02
  weight for this iteration     100.00

 eigenvalues of (default mixing * dielectric matrix)
  average eigenvalue GAMMA=   0.2470
  0.2470  0.2470

 Free energy of the ion-electron system (eV)
  ---------------------------------------------------
  alpha Z        PSCENC =      2280.75663614
  Ewald energy   TEWEN  =    249090.09421417
  -Hartree energ DENC   =   -317161.37877178
  -exchange      EXHF   =         0.00000000
  -V(xc)+E(xc)   XCENC  =      2334.53307089
  PAW double counting   =     67919.58061903   -67065.16222451
  entropy T*S    EENTRO =        -0.00770692
  eigenvalues    EBANDS =     -9080.22178221
  atomic energy  EATOM  =     70799.26311930
  ---------------------------------------------------
  free energy    TOTEN  =      -882.54282589 eV

  energy without entropy =     -882.53511897  energy(sigma->0) =     -882.53897243


--------------------------------------------------------------------------------------------------------




----------------------------------------- Iteration    1(   4)  ---------------------------------------


    POTLOK:  cpu time    0.34: real time    0.34
    SETDIJ:  cpu time    2.74: real time    2.74
    EDDIAG:  cpu time    1.69: real time    1.70
  RMM-DIIS:  cpu time    3.04: real time    3.04
    ORTHCH:  cpu time    0.20: real time    0.20
       DOS:  cpu time    0.00: real time    0.00
    CHARGE:  cpu time    1.18: real time    1.18
    MIXING:  cpu time    0.01: real time    0.01
    --------------------------------------------
      LOOP:  cpu time    9.19: real time    9.21

 eigenvalue-minimisations  :  1190
 total energy-change (2. order) :-0.5462959E-03  (-0.1150902E-04)
 number of electron     887.9999994 magnetization       1.9403693
 augmentation part       -8.4029246 magnetization       1.0652027

 DIPCOR: dipole corrections for dipol
 direction  3 min pos   232,
 dipolmoment           0.000000      0.000000      1.177739 electrons x Angstroem
 Tr[quadrupol]    -19721.686560

 energy correction for charged system         0.000000 eV
 dipol+quadrupol energy correction           -0.039734 eV
 added-field ion interaction         14.323597 eV  (added to PSCEN)


 Broyden mixing:
  rms(total) = 0.33612E-02    rms(broyden)= 0.32207E-02
  rms(prec ) = 0.34082E-02
  weight for this iteration     100.00

 eigenvalues of (default mixing * dielectric matrix)
  average eigenvalue GAMMA=   0.3338
  0.3805  0.3805  0.2404

 Free energy of the ion-electron system (eV)
  ---------------------------------------------------
  alpha Z        PSCENC =      2280.74558044
  Ewald energy   TEWEN  =    249090.09421417
  -Hartree energ DENC   =   -317161.55361860
  -exchange      EXHF   =         0.00000000
  -V(xc)+E(xc)   XCENC  =      2334.53309953
  PAW double counting   =     67919.57082927   -67065.15096691
  entropy T*S    EENTRO =        -0.00796728
  eigenvalues    EBANDS =     -9080.03766211
  atomic energy  EATOM  =     70799.26311930
  ---------------------------------------------------
  free energy    TOTEN  =      -882.54337218 eV

  energy without entropy =     -882.53540491  energy(sigma->0) =     -882.53938855


--------------------------------------------------------------------------------------------------------




----------------------------------------- Iteration    1(   5)  ---------------------------------------


    POTLOK:  cpu time    0.35: real time    0.35
    SETDIJ:  cpu time    2.66: real time    2.66
    EDDIAG:  cpu time    1.58: real time    1.59
  RMM-DIIS:  cpu time    2.90: real time    2.90
    ORTHCH:  cpu time    0.19: real time    0.19
       DOS:  cpu time    0.00: real time    0.00
    --------------------------------------------
      LOOP:  cpu time    7.69: real time    7.71

 eigenvalue-minimisations  :  1127
 total energy-change (2. order) :-0.8403300E-04  (-0.4573367E-05)
 number of electron     887.9999994 magnetization       1.9403693
 augmentation part       -8.4029246 magnetization       1.0652027

 DIPCOR: dipole corrections for dipol
 direction  3 min pos   232,
 dipolmoment           0.000000      0.000000      1.177437 electrons x Angstroem
 Tr[quadrupol]    -19721.688665

 energy correction for charged system         0.000000 eV
 dipol+quadrupol energy correction           -0.039714 eV
 added-field ion interaction         14.319929 eV  (added to PSCEN)


 Free energy of the ion-electron system (eV)
  ---------------------------------------------------
  alpha Z        PSCENC =      2280.74193260
  Ewald energy   TEWEN  =    249090.09421417
  -Hartree energ DENC   =   -317161.61386986
  -exchange      EXHF   =         0.00000000
  -V(xc)+E(xc)   XCENC  =      2334.53311636
  PAW double counting   =     67919.56606109   -67065.14582082
  entropy T*S    EENTRO =        -0.00808693
  eigenvalues    EBANDS =     -9079.97412213
  atomic energy  EATOM  =     70799.26311930
  ---------------------------------------------------
  free energy    TOTEN  =      -882.54345622 eV

  energy without entropy =     -882.53536928  energy(sigma->0) =     -882.53941275


--------------------------------------------------------------------------------------------------------




 average (electrostatic) potential at core
  the test charge radii are     1.1513  0.7215  1.2059  0.7215  0.6991  0.7215
  (the norm of the test charge is              1.0000)
       1 -84.8440       2 -84.8448       3 -84.8339       4 -84.8359       5 -84.8305
       6 -84.8302       7 -84.4808       8 -84.4756       9 -84.4660      10 -84.4749
      11 -84.4714      12 -84.4603      13 -84.5616      14 -84.6000      15 -84.5242
      16 -84.5622      17 -84.5412      18 -84.5284      19 -84.5963      20 -84.5736
      21 -84.4827      22 -84.5552      23 -84.5881      24 -84.4709      25 -84.5622
      26 -84.5373      27 -81.1740      28 -84.5759      29 -84.4688      30 -84.6530
      31 -84.4948      32 -84.3659      33 -84.6004      34 -84.1434      35 -84.5348
      36 -73.3597      37 -73.3458      38 -73.3567      39 -73.3531      40 -73.3589
      41 -73.3472      42 -73.3480      43 -73.3506      44 -73.3562      45 -73.3499
      46 -73.3522      47 -73.3437      48 -73.7028      49 -73.6862      50 -73.7135
      51 -73.6808      52 -73.7253      53 -73.6803      54 -73.7115      55 -73.6622
      56 -73.6941      57 -73.6670      58 -73.7243      59 -73.7294      60 -73.7093
      61 -73.6506      62 -73.6707      63 -73.7088      64 -73.7179      65 -73.7188
      66 -73.6844      67 -73.7049      68 -73.7259      69 -73.6861      70 -73.6840
      71 -73.7078      72 -73.6327      73 -73.6530      74 -73.6273      75 -73.7118
      76 -73.5928      77 -73.6874      78 -73.5884      79 -73.6377      80 -73.4905
      81 -73.5549      82 -73.6062      83 -73.6866      84 -74.3341      85 -73.8638
      86 -73.8840      87 -74.0867      88 -73.8726      89 -73.8026      90 -73.9039
      91 -73.9692      92 -73.5590      93 -73.9544      94 -73.6727      95 -73.9342
      96 -73.5502      97 -73.4817      98 -73.4368      99 -73.9229     100 -73.3352
     101 -73.5980     102 -73.5587     103 -74.0382     104 -73.6218     105 -73.6109
     106 -73.3812     107 -73.0791     108 -72.8677     109 -75.5302     110 -75.6654
     111 -55.5858     112 -75.6218
 
 
 
 E-fermi :   0.9863     XC(G=0):  -5.9920     alpha+bet : -7.5081


 spin component 1

 k-point     1 :       0.0000    0.0000    0.0000
  band No.  band energies     occupation 
      1     -34.1777      1.00000
      2     -34.1654      1.00000
      3     -34.1427      1.00000
      4     -34.1347      1.00000
      5     -34.1293      1.00000
      6     -34.1264      1.00000
      7     -33.9630      1.00000
      8     -33.8605      1.00000
      9     -33.8243      1.00000
     10     -33.8097      1.00000
     11     -33.7955      1.00000
     12     -33.7790      1.00000
     13     -33.7668      1.00000
     14     -33.7476      1.00000
     15     -33.7324      1.00000
     16     -33.7300      1.00000
     17     -33.7167      1.00000
     18     -33.7084      1.00000
     19     -33.7053      1.00000
     20     -33.6999      1.00000
     21     -33.6822      1.00000
     22     -33.6778      1.00000
     23     -33.6688      1.00000
     24     -33.6546      1.00000
     25     -33.6507      1.00000
     26     -33.6453      1.00000
     27     -33.6245      1.00000
     28     -33.6193      1.00000
     29     -33.5980      1.00000
     30     -33.5886      1.00000
     31     -33.5850      1.00000
     32     -33.5778      1.00000
     33     -33.5725      1.00000
     34     -33.5233      1.00000
     35     -32.1217      1.00000
     36     -22.2372      1.00000
     37     -21.3828      1.00000
     38     -19.1981      1.00000
     39     -19.1545      1.00000
     40     -19.1038      1.00000
     41     -18.9964      1.00000
     42     -18.9726      1.00000
     43     -18.9415      1.00000
     44     -18.8883      1.00000
     45     -18.8730      1.00000
     46     -18.8432      1.00000
     47     -18.8114      1.00000
     48     -18.7957      1.00000
     49     -18.7653      1.00000
     50     -18.7055      1.00000
     51     -18.6933      1.00000
     52     -18.6791      1.00000
     53     -18.6658      1.00000
     54     -18.6472      1.00000
     55     -18.6272      1.00000
     56     -18.6106      1.00000
     57     -18.5741      1.00000
     58     -18.5626      1.00000
     59     -18.5589      1.00000
     60     -18.5046      1.00000
     61     -18.4889      1.00000
     62     -18.4736      1.00000
     63     -18.4629      1.00000
     64     -18.4501      1.00000
     65     -18.4114      1.00000
     66     -18.3923      1.00000
     67     -18.3638      1.00000
     68     -18.3451      1.00000
     69     -18.3380      1.00000
     70     -18.2840      1.00000
     71     -18.2620      1.00000
     72     -18.2222      1.00000
     73     -18.2106      1.00000
     74     -18.2035      1.00000
     75     -18.1962      1.00000
     76     -18.1164      1.00000
     77     -18.1078      1.00000
     78     -18.0875      1.00000
     79     -17.9839      1.00000
     80     -17.8982      1.00000
     81     -17.8593      1.00000
     82     -17.8416      1.00000
     83     -17.8087      1.00000
     84     -17.8027      1.00000
     85     -17.6613      1.00000
     86     -17.5541      1.00000
     87     -17.5026      1.00000
     88     -17.4723      1.00000
     89     -17.2770      1.00000
     90     -17.1737      1.00000
     91     -17.0998      1.00000
     92     -17.0731      1.00000
     93     -17.0639      1.00000
     94     -17.0133      1.00000
     95     -17.0055      1.00000
     96     -16.8951      1.00000
     97     -16.8778      1.00000
     98     -16.8012      1.00000
     99     -16.7910      1.00000
    100     -16.7406      1.00000
    101     -16.7367      1.00000
    102     -16.7156      1.00000
    103     -16.7101      1.00000
    104     -16.6645      1.00000
    105     -16.6285      1.00000
    106     -16.5172      1.00000
    107     -16.4875      1.00000
    108     -16.4667      1.00000
    109     -16.4424      1.00000
    110     -16.4383      1.00000
    111     -16.4168      1.00000
    112     -16.4076      1.00000
    113     -16.3955      1.00000
    114     -16.3842      1.00000
    115     -16.3715      1.00000
    116     -16.3584      1.00000
    117     -16.3447      1.00000
    118     -16.3405      1.00000
    119     -16.3263      1.00000
    120     -16.3234      1.00000
    121     -16.3040      1.00000
    122     -16.2927      1.00000
    123     -16.2888      1.00000
    124     -16.2613      1.00000
    125     -16.2540      1.00000
    126     -16.2484      1.00000
    127     -16.2216      1.00000
    128     -16.2024      1.00000
    129     -16.1866      1.00000
    130     -16.1829      1.00000
    131     -16.1701      1.00000
    132     -16.1438      1.00000
    133     -16.1370      1.00000
    134     -16.1229      1.00000
    135     -16.1130      1.00000
    136     -16.0766      1.00000
    137     -16.0607      1.00000
    138     -16.0499      1.00000
    139     -16.0369      1.00000
    140     -16.0033      1.00000
    141     -15.9906      1.00000
    142     -15.9296      1.00000
    143     -15.9273      1.00000
    144     -15.9044      1.00000
    145     -15.8505      1.00000
    146     -15.7983      1.00000
    147     -15.7418      1.00000
    148     -15.7364      1.00000
    149     -15.6692      1.00000
    150     -15.6286      1.00000
    151     -15.5973      1.00000
    152     -15.5262      1.00000
    153     -15.4869      1.00000
    154     -15.4695      1.00000
    155     -15.4189      1.00000
    156     -15.3975      1.00000
    157     -15.3764      1.00000
    158     -15.3069      1.00000
    159     -15.2997      1.00000
    160     -15.2266      1.00000
    161     -15.2150      1.00000
    162     -15.0608      1.00000
    163     -15.0340      1.00000
    164     -14.9324      1.00000
    165     -14.8440      1.00000
    166     -14.8317      1.00000
    167     -14.7513      1.00000
    168     -14.6844      1.00000
    169     -14.6030      1.00000
    170     -14.5318      1.00000
    171     -14.4615      1.00000
    172     -14.4261      1.00000
    173     -14.3865      1.00000
    174     -14.2911      1.00000
    175     -14.2155      1.00000
    176     -14.1616      1.00000
    177     -14.1297      1.00000
    178     -14.1172      1.00000
    179     -14.0860      1.00000
    180     -14.0587      1.00000
    181     -14.0506      1.00000
    182     -14.0256      1.00000
    183     -14.0188      1.00000
    184     -13.9991      1.00000
    185     -13.9744      1.00000
    186     -13.9526      1.00000
    187     -13.9228      1.00000
    188     -13.9166      1.00000
    189     -13.9079      1.00000
    190     -13.8718      1.00000
    191     -13.8177      1.00000
    192     -13.7986      1.00000
    193     -13.7908      1.00000
    194     -13.7729      1.00000
    195     -13.7225      1.00000
    196     -13.7001      1.00000
    197     -13.6698      1.00000
    198     -13.6492      1.00000
    199     -13.5798      1.00000
    200     -13.5669      1.00000
    201     -13.5281      1.00000
    202     -13.5074      1.00000
    203     -13.4656      1.00000
    204     -13.4548      1.00000
    205     -13.3971      1.00000
    206     -13.3549      1.00000
    207     -13.3341      1.00000
    208     -13.2513      1.00000
    209     -13.1453      1.00000
[...]
      9.84031      7.76403      0.00000        -1.150087     -0.012497     -0.464177
      1.60531      7.76403      0.00000         1.140302      0.000427     -0.470945
      4.35031      9.70504      1.94101        -0.332806     -0.009074     -0.356803
      7.09531      9.70504      1.94101         0.374899     -0.005649     -0.312854
      4.35031      1.94101      1.94101        -0.324330     -0.048046     -0.317842
      1.60531      1.94101      1.94101         0.341210     -0.020346     -0.347953
      9.84031      1.94101      1.94101        -0.355829     -0.038582     -0.276746
      9.84031      9.70504      1.94101        -0.398740     -0.026857     -0.319868
      7.09531      1.94101      1.94101         0.353569     -0.038849     -0.290324
      1.60531      9.70504      1.94101         0.368652     -0.025120     -0.330455
      4.35031      5.82303      1.94101        -0.329537      0.024021     -0.306659
      1.60531      5.82303      1.94101         0.350048      0.009619     -0.304999
      9.84031      5.82303      1.94101        -0.370653      0.012166     -0.350290
      7.09531      5.82303      1.94101         0.357935      0.056071     -0.308756
      7.10826     11.62829      3.88938        -0.001074      0.000592     -0.000578
      4.35909      7.76896      3.88815        -0.001049      0.000418     -0.001675
      7.10049      7.78594      3.89422        -0.000886      0.001414     -0.001534
      9.84882      7.76708      3.87714        -0.001114      0.000666     -0.001541
      1.61917     11.64130      3.86725        -0.001160      0.000239     -0.001811
      9.84632     11.61511      3.88544        -0.001158      0.001728     -0.001275
      4.36781     11.63096      3.88805        -0.000397      0.002791     -0.003779
      1.61462      7.76359      3.88110        -0.000999      0.001571     -0.002101
      4.34897      3.87985      3.87383        -0.000929      0.000469     -0.000488
      9.84458      3.88653      3.87908        -0.001751      0.000501     -0.000970
      7.09942      3.88504      3.87592        -0.001440      0.000946     -0.000798
      1.62594      3.87383      3.87099        -0.001654     -0.001020     -0.001944
      7.11851      1.93557      5.79914        -0.001567      0.002483     -0.000662
      7.11644      9.71186      5.89716        -0.001774      0.001305     -0.000361
      4.37332      9.68437      5.83775        -0.000763      0.006338     -0.006767
      9.83978      5.84984      5.81389        -0.002143      0.001030     -0.002554
      1.62981      9.70183      5.79965        -0.001259      0.000637     -0.001061
      7.11563      5.85106      5.79143        -0.002930      0.000825     -0.001675
      4.36082      1.91884      5.79604        -0.000697     -0.000677     -0.001076
      9.86009      1.91126      5.78724        -0.001757      0.001790     -0.000383
      4.37974      5.83567      5.80357        -0.001258      0.000384     -0.001691
      1.58218      5.82557      5.80241        -0.003456     -0.000747     -0.006717
      1.62436      1.91765      5.81206        -0.001639     -0.000104     -0.001470
      9.85605      9.64835      5.85732        -0.001063      0.001282     -0.003237
      7.12287      3.97835      7.65965        -0.000895      0.001844     -0.000371
      9.88003     11.62999      7.70374        -0.001666      0.001101     -0.001969
      1.60809      7.86581      7.77311        -0.001632      0.000136     -0.002117
      4.29899      3.83474      7.74207         0.002493     -0.003914     -0.002241
      7.14769      0.07196      7.81935        -0.001648      0.004165     -0.000039
      7.15307      7.69822      7.83595        -0.000661     -0.001825     -0.002411
      4.39284     11.60930      7.73885        -0.001806     -0.000778     -0.000383
      9.88697      7.67996      7.87239        -0.002094      0.003659     -0.004116
      4.42670      7.79541      7.85841         0.001144      0.007892     -0.008888
      9.88604      3.85260      7.62475        -0.002468      0.002492     -0.000359
      1.56054      3.80095      7.77456        -0.002867     -0.000894     -0.001636
      1.64257     11.61488      7.72762        -0.001807      0.000826     -0.001637
      7.11637      9.81798      9.68858        -0.001078      0.002334     -0.004488
      1.61363      9.73365      9.73093        -0.002494      0.001463     -0.002409
      4.46780      9.80270      9.77013        -0.001128      0.001374      0.003388
      4.48542      1.79222      9.74450         0.004100      0.003378     -0.003669
      1.56790      1.87151      9.68868         0.000303     -0.001275     -0.001497
      9.96255      9.75168      9.66308        -0.003062      0.001914     -0.000504
      9.94334      1.87389      9.59821        -0.001227      0.002333     -0.003303
      7.36478      2.47590      9.90977         0.004867      0.013510     -0.000397
      9.20854      5.07949      9.79161        -0.015120     -0.000561     -0.001184
      7.13445      6.55676     10.67701        -0.009554     -0.002487      0.008748
      1.08549      5.86105      9.68821        -0.016706     -0.000017      0.001989
      5.78472      3.00532      8.81582         0.003980      0.009589      0.004165
      7.35286      4.57783     10.54058        -0.009026      0.001140     -0.007341
      4.31640      6.06887     10.02770         0.003120      0.015872     -0.038664
      4.24525      5.11784     10.99730        -0.013467      0.041635     -0.013108
      5.79905      4.22075     11.60092        -0.007334     -0.005913     -0.004173
      5.41788      3.62680     12.54254        -0.023675     -0.006950     -0.019890
 -----------------------------------------------------------------------------------
    total drift:                                0.115780     -0.107937      0.224040


--------------------------------------------------------------------------------------------------------



  FREE ENERGIE OF THE ION-ELECTRON SYSTEM (eV)
  ---------------------------------------------------
  free  energy   TOTEN  =      -903.63509425 eV

  energy  without entropy=     -903.62736570  energy(sigma->0) =     -903.63122998
 
 d Force = 0.1523701E-03[ 0.137E-03, 0.168E-03]  d Energy = 0.1734494E-03-0.211E-04
 d Force =-0.4724449E+01[-0.472E+01,-0.472E+01]  d Ewald  =-0.4724449E+01 0.291E-10


--------------------------------------------------------------------------------------------------------


    POTLOK:  cpu time    2.93: real time    2.94


--------------------------------------------------------------------------------------------------------


 stress matrix after NEB project (eV)
    -69.75244      2.66613     -1.50438
      2.66620   -115.95681      0.71979
     -1.50455      0.71990    -70.00269
  FORCES: max atom, RMS     0.045679    0.008457
  FORCE total and by dimension    0.089505    0.041635
  Stress total and by dimension  152.418969  115.956812
 Quasi-Newton relaxation of ions (Broydens 2nd method)
  g(Force)  = 0.773E-04   g(Stress)= 0.000E+00

 retain information from N=  1 steps
 eigenvalues of (default step * inverse Hessian matrix)
  average eigenvalue of G=   0.0424
 eigenvalue spectrum of G is  0.0424


--------------------------------------------------------------------------------------------------------


  
 reached required accuracy - stopping structural energy minimisation
 writing wavefunctions
     LOOP+:  cpu time   58.38: real time   59.90
    4ORBIT:  cpu time    0.00: real time    0.00
 


 total charge     
 
# of ion     s       p       d       f       tot
------------------------------------------------
  1        1.992   5.764   0.872   0.774   9.402
  2        1.992   5.764   0.872   0.774   9.402
  3        1.992   5.764   0.872   0.774   9.402
  4        1.992   5.764   0.872   0.773   9.401
  5        1.992   5.764   0.872   0.774   9.401
  6        1.992   5.764   0.872   0.774   9.402
  7        1.993   5.818   0.901   0.721   9.434
  8        1.993   5.818   0.900   0.721   9.432
  9        1.994   5.819   0.903   0.722   9.437
 10        1.994   5.819   0.904   0.722   9.438
 11        1.993   5.818   0.903   0.722   9.436
 12        1.994   5.819   0.903   0.722   9.437
 13        1.994   5.819   0.910   0.725   9.449
 14        1.994   5.819   0.904   0.723   9.439
 15        1.995   5.820   0.915   0.726   9.457
 16        1.995   5.820   0.913   0.726   9.453
 17        1.994   5.819   0.909   0.724   9.446
 18        1.995   5.820   0.913   0.725   9.453
 19        1.994   5.819   0.916   0.726   9.455
 20        1.993   5.817   0.900   0.723   9.433
 21        1.996   5.822   0.928   0.732   9.478
 22        1.995   5.821   0.921   0.728   9.465
 23        1.994   5.819   0.908   0.725   9.446
 24        1.995   5.819   0.916   0.737   9.466
 25        1.998   5.812   0.950   0.744   9.503
 26        1.993   5.816   0.910   0.734   9.453
 27        2.016   5.788   0.617   1.132   9.553
 28        1.993   5.819   0.909   0.723   9.444
 29        1.993   5.816   0.900   0.738   9.447
 30        1.992   5.817   0.899   0.723   9.431
 31        2.002   5.784   1.012   0.780   9.579
 32        2.004   5.770   1.047   0.813   9.635
 33        2.007   5.766   1.080   0.790   9.644
 34        1.998   5.788   1.025   0.795   9.605
 35        2.001   5.785   0.990   0.765   9.541
 36        1.600   3.384   0.000   0.000   4.985
 37        1.600   3.384   0.000   0.000   4.984
 38        1.600   3.384   0.000   0.000   4.984
 39        1.600   3.384   0.000   0.000   4.984
 40        1.600   3.384   0.000   0.000   4.985
 41        1.600   3.384   0.000   0.000   4.984
 42        1.600   3.384   0.000   0.000   4.985
 43        1.600   3.384   0.000   0.000   4.985
 44        1.600   3.384   0.000   0.000   4.984
 45        1.600   3.384   0.000   0.000   4.985
 46        1.600   3.384   0.000   0.000   4.985
 47        1.600   3.384   0.000   0.000   4.984
 48        1.597   3.457   0.000   0.000   5.053
 49        1.596   3.455   0.000   0.000   5.051
 50        1.597   3.457   0.000   0.000   5.054
 51        1.596   3.455   0.000   0.000   5.052
 52        1.597   3.457   0.000   0.000   5.054
 53        1.596   3.455   0.000   0.000   5.051
 54        1.596   3.456   0.000   0.000   5.053
 55        1.596   3.455   0.000   0.000   5.051
 56        1.596   3.456   0.000   0.000   5.053
 57        1.596   3.454   0.000   0.000   5.051
 58        1.597   3.458   0.000   0.000   5.055
 59        1.597   3.458   0.000   0.000   5.055
 60        1.598   3.462   0.000   0.000   5.060
 61        1.597   3.462   0.000   0.000   5.060
 62        1.598   3.460   0.000   0.000   5.057
 63        1.598   3.464   0.000   0.000   5.062
 64        1.598   3.467   0.000   0.000   5.065
 65        1.598   3.464   0.000   0.000   5.062
 66        1.598   3.464   0.000   0.000   5.062
 67        1.598   3.466   0.000   0.000   5.064
 68        1.598   3.468   0.000   0.000   5.066
 69        1.598   3.463   0.000   0.000   5.061
 70        1.598   3.464   0.000   0.000   5.061
 71        1.598   3.466   0.000   0.000   5.064
 72        1.598   3.457   0.000   0.000   5.054
 73        1.597   3.450   0.000   0.000   5.047
 74        1.597   3.456   0.000   0.000   5.053
 75        1.597   3.465   0.000   0.000   5.063
 76        1.597   3.455   0.000   0.000   5.052
 77        1.598   3.463   0.000   0.000   5.061
 78        1.597   3.456   0.000   0.000   5.053
 79        1.597   3.460   0.000   0.000   5.057
 80        1.596   3.459   0.000   0.000   5.055
 81        1.597   3.463   0.000   0.000   5.060
 82        1.597   3.460   0.000   0.000   5.056
 83        1.597   3.454   0.000   0.000   5.052
 84        1.597   3.465   0.000   0.000   5.062
 85        1.598   3.475   0.000   0.000   5.073
 86        1.599   3.483   0.000   0.000   5.082
 87        1.594   3.466   0.000   0.000   5.060
 88        1.598   3.469   0.000   0.000   5.067
 89        1.596   3.464   0.000   0.000   5.060
 90        1.599   3.476   0.000   0.000   5.076
 91        1.598   3.467   0.000   0.000   5.065
 92        1.596   3.462   0.000   0.000   5.058
 93        1.601   3.483   0.000   0.000   5.084
 94        1.598   3.478   0.000   0.000   5.076
 95        1.599   3.478   0.000   0.000   5.077
 96        1.605   3.434   0.000   0.000   5.039
 97        1.602   3.422   0.000   0.000   5.025
 98        1.603   3.428   0.000   0.000   5.031
 99        1.605   3.398   0.000   0.000   5.003
100        1.602   3.416   0.000   0.000   5.018
101        1.605   3.423   0.000   0.000   5.028
102        1.606   3.432   0.000   0.000   5.038
103        1.599   3.352   0.000   0.000   4.950
104        1.596   3.415   0.000   0.000   5.011
105        1.605   3.383   0.000   0.000   4.988
106        1.601   3.416   0.000   0.000   5.017
107        0.688   0.687   8.032   0.000   9.406
108        0.681   0.633   8.022   0.000   9.336
109        1.603   3.379   0.000   0.000   4.982
110        1.632   3.248   0.000   0.000   4.880
111        0.938   1.542   0.000   0.000   2.480
112        1.633   3.552   0.000   0.000   5.185
------------------------------------------------
tot      190.520 460.467  47.991  26.430 725.409

 


 magnetization (x)
 
# of ion     s       p       d       f       tot
------------------------------------------------
  1       -0.000  -0.000   0.000   0.000   0.000
  2       -0.000  -0.000   0.000   0.000   0.000
  3       -0.000   0.000   0.000  -0.000  -0.000
  4       -0.000  -0.000   0.000   0.000   0.000
  5       -0.000  -0.000   0.000   0.000   0.000
  6       -0.000  -0.000   0.000   0.000   0.000
  7       -0.000   0.000   0.000  -0.000  -0.000
  8       -0.000  -0.000   0.000   0.000   0.000
  9       -0.000  -0.000   0.000  -0.000   0.000
 10       -0.000  -0.000   0.000   0.000   0.000
 11       -0.000  -0.000   0.000   0.000   0.000
 12       -0.000  -0.000   0.000   0.000   0.000
 13       -0.000   0.000   0.000  -0.000  -0.000
 14       -0.000  -0.000  -0.000   0.000   0.000
 15        0.000   0.000   0.000   0.000   0.000
 16       -0.000   0.000   0.000   0.000   0.000
 17       -0.000  -0.000   0.000   0.002   0.002
 18       -0.000  -0.000   0.000   0.000   0.000
 19       -0.000  -0.000  -0.000   0.000   0.000
 20       -0.000  -0.000   0.000   0.004   0.004
 21       -0.000  -0.000   0.000   0.004   0.004
 22       -0.000  -0.000  -0.000   0.000   0.000
 23        0.000   0.000   0.000   0.000   0.001
 24       -0.000   0.000  -0.000  -0.002  -0.002
 25        0.000   0.001   0.000   0.003   0.004
 26       -0.000   0.000  -0.001  -0.003  -0.004
 27       -0.004  -0.006   0.009   0.951   0.950
 28       -0.000   0.000   0.000   0.001   0.001
 29        0.000  -0.000   0.001   0.008   0.008
 30       -0.000   0.000   0.000  -0.000  -0.000
 31        0.000  -0.000   0.000   0.000   0.000
 32       -0.000   0.000  -0.000  -0.004  -0.004
 33       -0.000  -0.000  -0.000   0.001   0.001
 34        0.000   0.002   0.001  -0.015  -0.012
 35       -0.000  -0.000   0.001   0.008   0.008
 36        0.000  -0.000   0.000   0.000  -0.000
 37        0.000  -0.000   0.000   0.000  -0.000
 38        0.000  -0.000   0.000   0.000  -0.000
 39        0.000  -0.000   0.000   0.000   0.000
 40        0.000  -0.000   0.000   0.000  -0.000
 41        0.000  -0.000   0.000   0.000  -0.000
 42       -0.000  -0.000   0.000   0.000  -0.000
 43        0.000  -0.000   0.000   0.000  -0.000
 44        0.000   0.000   0.000   0.000   0.000
 45       -0.000  -0.000   0.000   0.000  -0.000
 46        0.000  -0.000   0.000   0.000  -0.000
 47       -0.000  -0.000   0.000   0.000  -0.000
 48        0.000  -0.000   0.000   0.000  -0.000
 49        0.000   0.000   0.000   0.000   0.000
 50        0.000   0.000   0.000   0.000   0.000
 51        0.000   0.000   0.000   0.000   0.000
 52        0.000   0.000   0.000   0.000   0.000
 53        0.000  -0.000   0.000   0.000  -0.000
 54        0.000   0.000   0.000   0.000   0.000
 55        0.000  -0.000   0.000   0.000  -0.000
 56       -0.000  -0.000   0.000   0.000  -0.000
 57       -0.000  -0.000   0.000   0.000  -0.000
 58       -0.000  -0.000   0.000   0.000  -0.000
 59        0.000  -0.000   0.000   0.000  -0.000
 60        0.000  -0.000   0.000   0.000  -0.000
 61       -0.000  -0.000   0.000   0.000  -0.000
 62       -0.000  -0.000   0.000   0.000  -0.000
 63       -0.000   0.000   0.000   0.000   0.000
 64       -0.000  -0.000   0.000   0.000  -0.000
 65       -0.000  -0.000   0.000   0.000  -0.000
 66        0.000  -0.000   0.000   0.000  -0.000
 67       -0.000  -0.000   0.000   0.000  -0.000
 68        0.000   0.000   0.000   0.000   0.000
 69       -0.000  -0.000   0.000   0.000  -0.000
 70       -0.000   0.000   0.000   0.000   0.000
 71       -0.000  -0.000   0.000   0.000  -0.000
 72        0.000   0.000   0.000   0.000   0.000
 73       -0.000  -0.000   0.000   0.000  -0.000
 74        0.000  -0.000   0.000   0.000  -0.000
 75       -0.000   0.000   0.000   0.000   0.000
 76       -0.000  -0.000   0.000   0.000  -0.000
 77        0.000   0.001   0.000   0.000   0.001
 78        0.000   0.001   0.000   0.000   0.001
 79       -0.000  -0.000   0.000   0.000  -0.000
 80       -0.000  -0.003   0.000   0.000  -0.003
 81       -0.000  -0.002   0.000   0.000  -0.003
 82       -0.000  -0.000   0.000   0.000  -0.000
 83        0.000   0.000   0.000   0.000   0.000
 84        0.000   0.005   0.000   0.000   0.005
 85        0.000   0.000   0.000   0.000   0.000
 86       -0.000  -0.002   0.000   0.000  -0.002
 87       -0.000   0.011   0.000   0.000   0.011
 88        0.000   0.000   0.000   0.000   0.000
 89        0.000   0.003   0.000   0.000   0.003
 90        0.000   0.002   0.000   0.000   0.002
 91       -0.000   0.000   0.000   0.000   0.000
 92       -0.000  -0.001   0.000   0.000  -0.001
 93        0.000   0.001   0.000   0.000   0.001
 94       -0.000  -0.004   0.000   0.000  -0.005
 95       -0.000  -0.000   0.000   0.000  -0.000
 96        0.000   0.002   0.000   0.000   0.002
 97        0.000   0.000   0.000   0.000   0.000
 98        0.000   0.003   0.000   0.000   0.003
 99        0.000   0.016   0.000   0.000   0.017
100       -0.000  -0.000   0.000   0.000  -0.000
101       -0.000  -0.000   0.000   0.000  -0.000
102       -0.000  -0.000   0.000   0.000  -0.000
103        0.000   0.007   0.000   0.000   0.007
104        0.001   0.019   0.000   0.000   0.020
105        0.000   0.014   0.000   0.000   0.015
106       -0.000  -0.003   0.000   0.000  -0.003
107        0.003   0.001   0.105   0.000   0.109
108        0.011   0.003   0.113   0.000   0.127
109        0.003   0.192   0.000   0.000   0.195
110        0.004   0.302   0.000   0.000   0.306
111       -0.000  -0.005   0.000   0.000  -0.005
112        0.000   0.004   0.000   0.000   0.004
------------------------------------------------
tot        0.016   0.563   0.230   0.958   1.767

 

 total amount of memory used by VASP on root node   112387. kBytes
========================================================================

   base      :      30000. kBytes
   nonlr-proj:      13805. kBytes
   fftplans  :      26017. kBytes
   grid      :      29982. kBytes
   one-center:        933. kBytes
   wavefun   :      11650. kBytes
 
  
  
 General timing and accounting informations for this job:
 ========================================================
  
                  Total CPU time used (sec):      504.729
                            User time (sec):      494.143
                          System time (sec):       10.586
                         Elapsed time (sec):      512.370
  
                   Maximum memory used (kb):      311004.
                   Average memory used (kb):           0.
  
                          Minor page faults:       121700
                          Major page faults:            3
                 Voluntary context switches:        57798
