       N       E                     dE             d eps       ncg     rms          rms(c)
DAV:   1     0.156925310607E+05    0.15693E+05   -0.33892E+05  2336   0.149E+03
DAV:   2     0.573597447178E+04   -0.99566E+04   -0.87320E+04  2464   0.398E+02
DAV:   3     0.644969973224E+03   -0.50910E+04   -0.48084E+04  2912   0.263E+02
DAV:   4    -0.899223496868E+03   -0.15442E+04   -0.14239E+04  3208   0.139E+02
DAV:   5    -0.107088852433E+04   -0.17167E+03   -0.16927E+03  3888   0.610E+01    0.157E+02
RMM:   6    -0.880756944866E+03    0.19013E+03   -0.59130E+02  3216   0.303E+01    0.988E+01
RMM:   7    -0.986123837736E+03   -0.10537E+03   -0.11710E+03  3421   0.310E+01    0.157E+02
RMM:   8    -0.150485937564E+04   -0.51874E+03   -0.93015E+02  3380   0.570E+01    0.322E+02
RMM:   9    -0.205500293392E+04   -0.55014E+03   -0.14144E+03  3628   0.398E+01    0.420E+02
RMM:  10    -0.209675192816E+04   -0.41749E+02   -0.83660E+02  3522   0.353E+01    0.424E+02
RMM:  11    -0.167960769293E+04    0.41714E+03   -0.28272E+02  3326   0.183E+01    0.386E+02
RMM:  12    -0.874677875155E+03    0.80493E+03   -0.18952E+02  3204   0.136E+01    0.894E+01
RMM:  13    -0.871158572526E+03    0.35193E+01   -0.71128E+01  3269   0.878E+00    0.588E+01
RMM:  14    -0.876444158513E+03   -0.52856E+01   -0.82708E+01  3077   0.123E+01    0.623E+01
RMM:  15    -0.883500750370E+03   -0.70566E+01   -0.36589E+01  3263   0.638E+00    0.572E+01
RMM:  16    -0.876386236317E+03    0.71145E+01   -0.14115E+01  3159   0.506E+00    0.422E+01
RMM:  17    -0.874314711744E+03    0.20715E+01   -0.18613E+01  3273   0.483E+00    0.495E+01
RMM:  18    -0.872656386666E+03    0.16583E+01   -0.27606E+00  3125   0.248E+00    0.395E+01
RMM:  19    -0.871757382255E+03    0.89900E+00   -0.15787E+00  3293   0.133E+00    0.347E+01
RMM:  20    -0.871382291399E+03    0.37509E+00   -0.16829E+00  3122   0.181E+00    0.328E+01
RMM:  21    -0.871366798385E+03    0.15493E-01   -0.76630E-01  3352   0.921E-01    0.343E+01
RMM:  22    -0.871465066651E+03   -0.98268E-01   -0.16580E-01  3910   0.472E-01    0.343E+01
RMM:  23    -0.871527207068E+03   -0.62140E-01   -0.10842E-01  4044   0.289E-01    0.342E+01
RMM:  24    -0.871620047673E+03   -0.92841E-01   -0.50207E-02  3902   0.288E-01    0.341E+01
RMM:  25    -0.871603941925E+03    0.16106E-01   -0.39247E-02  3992   0.191E-01    0.341E+01
RMM:  26    -0.871808079925E+03   -0.20414E+00   -0.50835E-02  3241   0.330E-01    0.339E+01
RMM:  27    -0.872094157934E+03   -0.28608E+00   -0.28200E-01  3033   0.797E-01    0.331E+01
RMM:  28    -0.872334702327E+03   -0.24054E+00   -0.77620E-01  3168   0.112E+00    0.367E+01
RMM:  29    -0.872403970110E+03   -0.69268E-01   -0.12138E-01  3291   0.368E-01    0.367E+01
RMM:  30    -0.872460048193E+03   -0.56078E-01   -0.47914E-02  3225   0.259E-01    0.365E+01
RMM:  31    -0.872465189338E+03   -0.51411E-02   -0.13305E-02  3585   0.118E-01    0.364E+01
RMM:  32    -0.872455489650E+03    0.96997E-02   -0.31330E-02  3186   0.196E-01    0.365E+01
RMM:  33    -0.872442326691E+03    0.13163E-01   -0.68394E-03  3158   0.106E-01    0.366E+01
RMM:  34    -0.872453952213E+03   -0.11626E-01   -0.48680E-03  3058   0.769E-02    0.365E+01
RMM:  35    -0.872411830482E+03    0.42122E-01   -0.27187E-03  2764   0.607E-02    0.365E+01
RMM:  36    -0.872398924094E+03    0.12906E-01   -0.28430E-03  2677   0.696E-02    0.364E+01
RMM:  37    -0.872410846927E+03   -0.11923E-01   -0.36023E-03  2863   0.806E-02    0.364E+01
RMM:  38    -0.872280109751E+03    0.13074E+00   -0.13769E-02  3001   0.155E-01    0.366E+01
RMM:  39    -0.872231628038E+03    0.48482E-01   -0.82262E-03  2746   0.141E-01    0.366E+01
RMM:  40    -0.872245747947E+03   -0.14120E-01   -0.12611E-03  2193   0.678E-02    0.366E+01
RMM:  41    -0.872197074488E+03    0.48673E-01   -0.10803E-02  2974   0.149E-01    0.367E+01
RMM:  42    -0.872429399594E+03   -0.23233E+00   -0.14304E-02  3018   0.166E-01    0.365E+01
RMM:  43    -0.872433737434E+03   -0.43378E-02   -0.20198E-03  2338   0.613E-02    0.364E+01
RMM:  44    -0.872955574545E+03   -0.52184E+00   -0.67101E-02  3135   0.301E-01    0.361E+01
RMM:  45    -0.873257224929E+03   -0.30165E+00   -0.46503E-02  3148   0.237E-01    0.358E+01
RMM:  46    -0.873384420976E+03   -0.12720E+00   -0.76166E-02  3151   0.348E-01    0.361E+01
RMM:  47    -0.873580941151E+03   -0.19652E+00   -0.44283E-02  3146   0.269E-01    0.367E+01
RMM:  48    -0.873564719683E+03    0.16221E-01   -0.72210E-03  2834   0.122E-01    0.368E+01
RMM:  49    -0.874128201497E+03   -0.56348E+00   -0.11601E-01  3195   0.362E-01    0.371E+01
RMM:  50    -0.874652059354E+03   -0.52386E+00   -0.17825E-01  3201   0.428E-01    0.369E+01
RMM:  51    -0.882198734955E+03   -0.75467E+01   -0.79015E+01  3245   0.111E+01    0.118E+02
RMM:  52    -0.877339282237E+03    0.48595E+01   -0.99063E+00  3386   0.362E+00    0.889E+01
RMM:  53    -0.871523261865E+03    0.58160E+01   -0.25996E+00  3456   0.204E+00    0.816E+01
RMM:  54    -0.871680214881E+03   -0.15695E+00   -0.82277E-01  3638   0.885E-01    0.816E+01
RMM:  55    -0.871012851994E+03    0.66736E+00   -0.37912E-01  3381   0.765E-01    0.781E+01
RMM:  56    -0.866724091796E+03    0.42888E+01   -0.62191E+00  3290   0.314E+00    0.783E+01
RMM:  57    -0.872156847329E+03   -0.54328E+01   -0.20785E+00  3184   0.224E+00    0.814E+01
RMM:  58    -0.870395144434E+03    0.17617E+01   -0.59908E-01  3379   0.981E-01    0.815E+01
RMM:  59    -0.870454380117E+03   -0.59236E-01   -0.16549E-01  3522   0.510E-01    0.809E+01
RMM:  60    -0.870818826678E+03   -0.36445E+00   -0.83455E-02  3630   0.323E-01    0.818E+01
RMM:  61    -0.860880283463E+03    0.99385E+01   -0.92141E+00  3194   0.409E+00    0.642E+01
RMM:  62    -0.886887790557E+03   -0.26008E+02   -0.80558E+00  3215   0.359E+00    0.130E+02
RMM:  63    -0.888972464945E+03   -0.20847E+01   -0.16922E+00  3226   0.171E+00    0.138E+02
RMM:  64    -0.887674180877E+03    0.12983E+01   -0.47949E-01  3392   0.842E-01    0.139E+02
RMM:  65    -0.886461280298E+03    0.12129E+01   -0.14130E-01  3336   0.547E-01    0.139E+02
RMM:  66    -0.882723411285E+03    0.37379E+01   -0.27044E+00  2998   0.290E+00    0.114E+02
RMM:  67    -0.874581059091E+03    0.81424E+01   -0.17129E+00  3230   0.176E+00    0.807E+01
RMM:  68    -0.877183929718E+03   -0.26029E+01   -0.83140E-01  3166   0.135E+00    0.867E+01
RMM:  69    -0.876921363132E+03    0.26257E+00   -0.22897E-01  3238   0.588E-01    0.875E+01
RMM:  70    -0.876572583634E+03    0.34878E+00   -0.69907E-02  3221   0.339E-01    0.869E+01
RMM:  71    -0.868203585094E+03    0.83690E+01   -0.14481E+01  3229   0.428E+00    0.584E+01
RMM:  72    -0.885790597454E+03   -0.17587E+02   -0.88916E+00  3178   0.346E+00    0.875E+01
RMM:  73    -0.877550427497E+03    0.82402E+01   -0.22926E+00  3156   0.202E+00    0.743E+01
RMM:  74    -0.877291835785E+03    0.25859E+00   -0.45603E+00  3191   0.223E+00    0.751E+01
RMM:  75    -0.876481597020E+03    0.81024E+00   -0.59184E-01  3126   0.105E+00    0.725E+01
RMM:  76    -0.874031896242E+03    0.24497E+01   -0.11823E+00  3201   0.130E+00    0.682E+01
RMM:  77    -0.873656310241E+03    0.37559E+00   -0.42936E-01  3217   0.834E-01    0.681E+01
RMM:  78    -0.873126053054E+03    0.53026E+00   -0.20352E-01  3226   0.533E-01    0.673E+01
RMM:  79    -0.874319537525E+03   -0.11935E+01   -0.28759E-01  3188   0.654E-01    0.703E+01
RMM:  80    -0.874249723948E+03    0.69814E-01   -0.76789E-02  2999   0.406E-01    0.702E+01
RMM:  81    -0.874986231821E+03   -0.73651E+00   -0.68131E-01  3097   0.102E+00    0.697E+01
RMM:  82    -0.877623094053E+03   -0.26369E+01   -0.57059E-01  3164   0.824E-01    0.701E+01
RMM:  83    -0.878593048362E+03   -0.96995E+00   -0.59278E-01  3110   0.954E-01    0.751E+01
RMM:  84    -0.879008408308E+03   -0.41536E+00   -0.52211E-01  3127   0.101E+00    0.778E+01
RMM:  85    -0.878981739087E+03    0.26669E-01   -0.17803E-01  3144   0.585E-01    0.778E+01
RMM:  86    -0.881735058695E+03   -0.27533E+01   -0.18698E+00  3188   0.154E+00    0.824E+01
RMM:  87    -0.883322849741E+03   -0.15878E+01   -0.41595E-01  3146   0.915E-01    0.834E+01
RMM:  88    -0.883263911391E+03    0.58938E-01   -0.82795E-02  3109   0.395E-01    0.837E+01
RMM:  89    -0.883207440719E+03    0.56471E-01   -0.19130E-02  2917   0.180E-01    0.836E+01
RMM:  90    -0.883239764806E+03   -0.32324E-01   -0.10782E-02  2817   0.117E-01    0.836E+01
RMM:  91    -0.883806013666E+03   -0.56625E+00   -0.88259E+00  3204   0.333E+00    0.734E+01
RMM:  92    -0.891877933061E+03   -0.80719E+01   -0.50313E+00  3190   0.262E+00    0.868E+01
RMM:  93    -0.894627948652E+03   -0.27500E+01   -0.11356E+00  3209   0.131E+00    0.896E+01
RMM:  94    -0.896912370198E+03   -0.22844E+01   -0.57443E-01  3194   0.887E-01    0.908E+01
RMM:  95    -0.897016941043E+03   -0.10457E+00   -0.70098E-01  3208   0.930E-01    0.900E+01
RMM:  96    -0.898333570481E+03   -0.13166E+01   -0.84028E+00  3205   0.341E+00    0.894E+01
RMM:  97    -0.901962753253E+03   -0.36292E+01   -0.74976E+00  3112   0.335E+00    0.929E+01
RMM:  98    -0.899143346092E+03    0.28194E+01   -0.24230E+00  3182   0.198E+00    0.886E+01
RMM:  99    -0.899166047941E+03   -0.22702E-01   -0.37562E-01  3177   0.816E-01    0.885E+01
RMM: 100    -0.899449043118E+03   -0.28300E+00   -0.41977E-01  3204   0.781E-01
   1 F= -.92034204E+03 E0= -.92031330E+03  d E =-.920342E+03  mag=     2.3297
       N       E                     dE             d eps       ncg     rms          rms(c)
DAV:   1    -0.892797021833E+03    0.63690E+01   -0.60022E+01  3168   0.120E+01    0.869E+01
RMM:   2    -0.443619276664E+04   -0.35434E+04   -0.40024E+03  3975   0.144E+02    0.542E+02
RMM:   3    -0.273336060053E+04    0.17028E+04   -0.20536E+03  3601   0.113E+02    0.376E+02
RMM:   4    -0.154234678556E+04    0.11910E+04   -0.83979E+02  3628   0.578E+01    0.234E+02
RMM:   5    -0.925134320331E+03    0.61721E+03   -0.54554E+02  3523   0.493E+01    0.648E+01
RMM:   6    -0.918985784269E+03    0.61485E+01   -0.21019E+02  3448   0.216E+01    0.573E+01
RMM:   7    -0.905690334468E+03    0.13295E+02   -0.15244E+02  3586   0.150E+01    0.365E+01
RMM:   8    -0.890204555275E+03    0.15486E+02   -0.28297E+01  3069   0.965E+00    0.307E+01
RMM:   9    -0.883845816193E+03    0.63587E+01   -0.21105E+01  3570   0.524E+00    0.249E+01
RMM:  10    -0.874762452140E+03    0.90834E+01   -0.16294E+01  3120   0.653E+00    0.204E+01
RMM:  11    -0.869908337177E+03    0.48541E+01   -0.12962E+01  3186   0.463E+00    0.156E+01
RMM:  12    -0.866593885052E+03    0.33145E+01   -0.10364E+01  3137   0.433E+00    0.151E+01
RMM:  13    -0.866562851099E+03    0.31034E-01   -0.44325E+00  3196   0.226E+00    0.140E+01
RMM:  14    -0.865860413447E+03    0.70244E+00   -0.23800E+00  3110   0.195E+00    0.121E+01
RMM:  15    -0.865893859204E+03   -0.33446E-01   -0.14208E+00  3221   0.127E+00    0.112E+01
RMM:  16    -0.865862530066E+03    0.31329E-01   -0.89767E-01  3259   0.961E-01    0.106E+01
RMM:  17    -0.865711453200E+03    0.15108E+00   -0.57763E-01  3148   0.998E-01    0.952E+00
RMM:  18    -0.865516828153E+03    0.19463E+00   -0.13488E+00  2946   0.167E+00    0.864E+00
RMM:  19    -0.865473355775E+03    0.43472E-01   -0.59213E-01  3288   0.648E-01    0.734E+00
RMM:  20    -0.865104708045E+03    0.36865E+00   -0.18313E+00  2869   0.203E+00    0.873E+00
RMM:  21    -0.865165042072E+03   -0.60334E-01   -0.54335E-01  3108   0.855E-01    0.678E+00
RMM:  22    -0.865236741534E+03   -0.71699E-01   -0.24865E-01  3193   0.613E-01    0.699E+00
RMM:  23    -0.865285404377E+03   -0.48663E-01   -0.28669E-01  3141   0.721E-01    0.720E+00
RMM:  24    -0.865256902010E+03    0.28502E-01   -0.31501E-01  3154   0.713E-01    0.891E+00
RMM:  25    -0.865297012624E+03   -0.40111E-01   -0.11388E-01  2934   0.565E-01    0.677E+00
RMM:  26    -0.865276496865E+03    0.20516E-01   -0.10076E-01  2959   0.455E-01    0.626E+00
RMM:  27    -0.865260515411E+03    0.15981E-01   -0.28466E-01  3176   0.622E-01    0.687E+00
RMM:  28    -0.865381449889E+03   -0.12093E+00   -0.24283E-01  2920   0.783E-01    0.603E+00
RMM:  29    -0.865436966523E+03   -0.55517E-01   -0.10059E-01  3141   0.355E-01    0.563E+00
RMM:  30    -0.865445973340E+03   -0.90068E-02   -0.65673E-02  2922   0.365E-01    0.531E+00
RMM:  31    -0.865453012162E+03   -0.70388E-02   -0.27107E-02  2858   0.173E-01    0.521E+00
RMM:  32    -0.865486079981E+03   -0.33068E-01   -0.20170E-02  2944   0.191E-01    0.519E+00
RMM:  33    -0.865566833501E+03   -0.80754E-01   -0.96106E-02  3189   0.360E-01    0.533E+00
RMM:  34    -0.865592905849E+03   -0.26072E-01   -0.28327E-02  3168   0.173E-01    0.523E+00
RMM:  35    -0.865584790676E+03    0.81152E-02   -0.40911E-02  2946   0.278E-01    0.510E+00
RMM:  36    -0.865587214435E+03   -0.24238E-02   -0.44476E-02  3156   0.206E-01    0.503E+00
RMM:  37    -0.865575710275E+03    0.11504E-01   -0.21294E-02  3001   0.183E-01    0.501E+00
RMM:  38    -0.865573979769E+03    0.17305E-02   -0.87679E-03  2672   0.829E-02    0.498E+00
RMM:  39    -0.865567633610E+03    0.63462E-02   -0.73061E-03  2625   0.103E-01    0.500E+00
RMM:  40    -0.865544823459E+03    0.22810E-01   -0.24347E-02  3131   0.177E-01    0.483E+00
RMM:  41    -0.865530425728E+03    0.14398E-01   -0.61212E-02  3022   0.272E-01    0.471E+00
RMM:  42    -0.865537465162E+03   -0.70394E-02   -0.23950E-02  2979   0.148E-01    0.469E+00
RMM:  43    -0.865537605656E+03   -0.14049E-03   -0.62573E-03  2521   0.936E-02    0.470E+00
RMM:  44    -0.865538768632E+03   -0.11630E-02   -0.20312E-03  2107   0.517E-02    0.469E+00
RMM:  45    -0.865531941422E+03    0.68272E-02   -0.28857E-03  2326   0.715E-02    0.476E+00
RMM:  46    -0.865540043678E+03   -0.81023E-02   -0.75614E-03  2452   0.113E-01    0.462E+00
RMM:  47    -0.865540443646E+03   -0.39997E-03   -0.23044E+00  2889   0.236E+00    0.901E+00
RMM:  48    -0.865575303926E+03   -0.34860E-01   -0.71592E-01  3098   0.606E-01    0.973E+00
RMM:  49    -0.865564374632E+03    0.10929E-01   -0.61114E-02  3117   0.270E-01    0.997E+00
RMM:  50    -0.865574306484E+03   -0.99319E-02   -0.27956E-02  3040   0.129E-01    0.100E+01
RMM:  51    -0.865686528808E+03   -0.11222E+00   -0.33263E-02  2974   0.235E-01    0.113E+01
RMM:  52    -0.865437192966E+03    0.24934E+00   -0.16322E-01  3088   0.512E-01    0.746E+00
RMM:  53    -0.865362059481E+03    0.75133E-01   -0.14311E-01  3144   0.462E-01    0.761E+00
RMM:  54    -0.865439234725E+03   -0.77175E-01   -0.80193E-02  3071   0.365E-01    0.925E+00
RMM:  55    -0.865409076390E+03    0.30158E-01   -0.97670E-02  3037   0.379E-01    0.830E+00
RMM:  56    -0.865433070334E+03   -0.23994E-01   -0.20720E-02  2813   0.236E-01    0.833E+00
RMM:  57    -0.865404525756E+03    0.28545E-01   -0.11231E-01  2833   0.521E-01    0.699E+00
RMM:  58    -0.865406758318E+03   -0.22326E-02   -0.50374E-02  3101   0.243E-01    0.674E+00
RMM:  59    -0.865426606624E+03   -0.19848E-01   -0.70152E-02  3146   0.297E-01    0.671E+00
RMM:  60    -0.865426727066E+03   -0.12044E-03   -0.83913E-02  3168   0.288E-01    0.670E+00
RMM:  61    -0.865394037377E+03    0.32690E-01   -0.14384E-02  2841   0.134E-01    0.675E+00
RMM:  62    -0.865396205073E+03   -0.21677E-02   -0.64451E-02  3153   0.291E-01    0.644E+00
RMM:  63    -0.865385040554E+03    0.11165E-01   -0.21593E-02  2933   0.192E-01    0.602E+00
RMM:  64    -0.865414870540E+03   -0.29830E-01   -0.45852E-02  3149   0.254E-01    0.568E+00
RMM:  65    -0.865495118166E+03   -0.80248E-01   -0.67891E-02  3142   0.282E-01    0.597E+00
RMM:  66    -0.865515927962E+03   -0.20810E-01   -0.68165E-02  3120   0.289E-01    0.627E+00
RMM:  67    -0.865527098814E+03   -0.11171E-01   -0.18273E-02  2779   0.221E-01    0.575E+00
RMM:  68    -0.865556423978E+03   -0.29325E-01   -0.19747E-02  3019   0.132E-01    0.583E+00
RMM:  69    -0.865622721062E+03   -0.66297E-01   -0.43954E-02  3123   0.236E-01    0.594E+00
RMM:  70    -0.865659143141E+03   -0.36422E-01   -0.78341E-02  3125   0.250E-01    0.611E+00
RMM:  71    -0.865659122421E+03    0.20720E-04   -0.30732E-02  3002   0.150E-01    0.623E+00
RMM:  72    -0.865565581290E+03    0.93541E-01   -0.91941E-02  3092   0.329E-01    0.662E+00
RMM:  73    -0.865524807887E+03    0.40773E-01   -0.72738E-02  3078   0.234E-01    0.685E+00
RMM:  74    -0.865509698961E+03    0.15109E-01   -0.32235E-02  2967   0.205E-01    0.706E+00
RMM:  75    -0.865471060383E+03    0.38639E-01   -0.34090E-02  3012   0.188E-01    0.729E+00
RMM:  76    -0.865455837377E+03    0.15223E-01   -0.92548E-03  2735   0.947E-02    0.735E+00
RMM:  77    -0.865426379341E+03    0.29458E-01   -0.30678E-02  2941   0.214E-01    0.755E+00
RMM:  78    -0.865475297608E+03   -0.48918E-01   -0.14481E-02  2786   0.187E-01    0.745E+00
RMM:  79    -0.865479335668E+03   -0.40381E-02   -0.11854E-02  2886   0.114E-01    0.740E+00
RMM:  80    -0.865487811585E+03   -0.84759E-02   -0.31224E-03  2377   0.594E-02    0.737E+00
RMM:  81    -0.865487940775E+03   -0.12919E-03   -0.45407E-03  2300   0.879E-02    0.740E+00
RMM:  82    -0.865332419550E+03    0.15552E+00   -0.15486E-01  2834   0.546E-01    0.736E+00
RMM:  83    -0.865380623619E+03   -0.48204E-01   -0.33018E-02  2938   0.195E-01    0.764E+00
RMM:  84    -0.865381373905E+03   -0.75029E-03   -0.27327E-03  2327   0.578E-02    0.763E+00
RMM:  85    -0.865335393251E+03    0.45981E-01   -0.10851E-02  2749   0.131E-01    0.773E+00
RMM:  86    -0.865334432686E+03    0.96057E-03   -0.66977E-03  2480   0.767E-02    0.793E+00
RMM:  87    -0.865318185820E+03    0.16247E-01   -0.32420E-02  2994   0.219E-01    0.788E+00
RMM:  88    -0.865326286139E+03   -0.81003E-02   -0.99962E-03  2427   0.703E-02    0.789E+00
RMM:  89    -0.865348677764E+03   -0.22392E-01   -0.47613E-03  2395   0.938E-02    0.801E+00
RMM:  90    -0.865347513743E+03    0.11640E-02   -0.69992E-03  2493   0.788E-02    0.804E+00
RMM:  91    -0.865386424471E+03   -0.38911E-01   -0.29732E-02  2828   0.178E-01    0.803E+00
RMM:  92    -0.865628705949E+03   -0.24228E+00   -0.19903E+00  2872   0.182E+00    0.584E+00
RMM:  93    -0.865778200104E+03   -0.14949E+00   -0.39769E-01  3055   0.448E-01    0.637E+00
RMM:  94    -0.865772546106E+03    0.56540E-02   -0.35221E-02  2751   0.171E-01    0.640E+00
RMM:  95    -0.865771714960E+03    0.83115E-03   -0.89719E-03  2691   0.718E-02    0.643E+00
RMM:  96    -0.865774950288E+03   -0.32353E-02   -0.80908E-03  2243   0.894E-02    0.642E+00
RMM:  97    -0.865450952382E+03    0.32400E+00   -0.54131E+00  2995   0.239E+00    0.521E+00
RMM:  98    -0.865603680890E+03   -0.15273E+00   -0.16840E+00  3183   0.943E-01    0.484E+00
RMM:  99    -0.865613420062E+03   -0.97392E-02   -0.33832E-01  3073   0.661E-01    0.466E+00
RMM: 100    -0.865628602578E+03   -0.15183E-01   -0.32675E-01  3172   0.428E-01
   2 F= -.88651819E+03 E0= -.88651819E+03  d E =0.338239E+02  mag=    -0.4532
       N       E                     dE             d eps       ncg     rms          rms(c)
DAV:   1    -0.865596043534E+03    0.17377E-01   -0.65761E-01  3600   0.891E-01    0.415E+00
RMM:   2    -0.865649196605E+03   -0.53153E-01   -0.11933E+00  3168   0.125E+00    0.738E+00
RMM:   3    -0.865547269912E+03    0.10193E+00   -0.18778E-01  2742   0.759E-01    0.283E+00
RMM:   4    -0.865565776368E+03   -0.18506E-01   -0.11002E-01  3067   0.304E-01    0.184E+00
RMM:   5    -0.865596177640E+03   -0.30401E-01   -0.69545E-02  3037   0.294E-01    0.209E+00
RMM:   6    -0.865597960900E+03   -0.17833E-02   -0.64335E-02  2859   0.327E-01    0.920E-01
RMM:   7    -0.865613520829E+03   -0.15560E-01   -0.58919E-02  3060   0.234E-01    0.108E+00
RMM:   8    -0.865616391841E+03   -0.28710E-02   -0.28696E-02  2636   0.193E-01    0.495E-01
RMM:   9    -0.865624490226E+03   -0.80984E-02   -0.29176E-02  2855   0.136E-01    0.355E-01
RMM:  10    -0.865628165120E+03   -0.36749E-02   -0.11634E-02  2369   0.816E-02    0.277E-01
RMM:  11    -0.865630468842E+03   -0.23037E-02   -0.56550E-03  2048   0.608E-02    0.251E-01
RMM:  12    -0.865634787050E+03   -0.43182E-02   -0.17038E-02  2439   0.103E-01    0.199E-01
RMM:  13    -0.865637929229E+03   -0.31422E-02   -0.18584E-02  2263   0.722E-02    0.192E-01
RMM:  14    -0.865641545374E+03   -0.36161E-02   -0.20439E-02  2502   0.109E-01    0.151E-01
RMM:  15    -0.865643727340E+03   -0.21820E-02   -0.17353E-02  2145   0.675E-02    0.142E-01
RMM:  16    -0.865645241215E+03   -0.15139E-02   -0.58819E-03  2132   0.668E-02    0.832E-02
RMM:  17    -0.865646855901E+03   -0.16147E-02   -0.11568E-02  2128   0.653E-02    0.841E-02
RMM:  18    -0.865647921947E+03   -0.10660E-02   -0.46622E-03  1935   0.557E-02    0.767E-02
RMM:  19    -0.865648701141E+03   -0.77919E-03   -0.34540E-03  1801   0.476E-02    0.711E-02
RMM:  20    -0.865649316415E+03   -0.61527E-03   -0.19044E-03  1722   0.448E-02    0.652E-02
RMM:  21    -0.865649591513E+03   -0.27510E-03   -0.13391E-03  1524   0.348E-02    0.689E-02
RMM:  22    -0.865650144614E+03   -0.55310E-03   -0.14362E-03  1604   0.353E-02    0.592E-02
RMM:  23    -0.865651242013E+03   -0.10974E-02   -0.10115E-02  1783   0.555E-02    0.544E-02
RMM:  24    -0.865652018496E+03   -0.77648E-03   -0.55322E-03  1833   0.576E-02    0.516E-02
RMM:  25    -0.865652769776E+03   -0.75128E-03   -0.78523E-03  1767   0.491E-02    0.532E-02
RMM:  26    -0.865653131721E+03   -0.36195E-03   -0.12432E-03  1594   0.365E-02    0.456E-02
RMM:  27    -0.865653254986E+03   -0.12326E-03   -0.31814E-04  1488   0.273E-02    0.450E-02
RMM:  28    -0.865653401244E+03   -0.14626E-03   -0.24724E-04  1485   0.237E-02    0.417E-02
RMM:  29    -0.865653542423E+03   -0.14118E-03   -0.40165E-04  1489   0.218E-02    0.456E-02
RMM:  30    -0.865653669729E+03   -0.12731E-03   -0.19595E-04  1484   0.195E-02    0.409E-02
RMM:  31    -0.865654289488E+03   -0.61976E-03   -0.71001E-03  1706   0.534E-02    0.387E-02
RMM:  32    -0.865654869664E+03   -0.58018E-03   -0.55466E-03  1581   0.327E-02    0.504E-02
RMM:  33    -0.865654903872E+03   -0.34208E-04   -0.39833E-04  1487   0.269E-02
   3 F= -.88654432E+03 E0= -.88654394E+03  d E =0.337977E+02  mag=    -0.0001
       N       E                     dE             d eps       ncg     rms          rms(c)
DAV:   1    -0.865834915380E+03   -0.18005E+00   -0.21231E+01  2840   0.451E+00    0.177E+00
RMM:   2    -0.865911864123E+03   -0.76949E-01   -0.96857E-01  3004   0.127E+00    0.228E+00
RMM:   3    -0.865900665629E+03    0.11198E-01   -0.85935E-02  3133   0.382E-01    0.909E-01
RMM:   4    -0.865903084098E+03   -0.24185E-02   -0.27994E-02  3346   0.154E-01    0.654E-01
RMM:   5    -0.865905573555E+03   -0.24895E-02   -0.16429E-02  3041   0.155E-01    0.862E-01
RMM:   6    -0.865905425689E+03    0.14787E-03   -0.14144E-02  3148   0.121E-01    0.299E-01
RMM:   7    -0.865906488042E+03   -0.10624E-02   -0.38648E-03  2745   0.703E-02    0.225E-01
RMM:   8    -0.865907151325E+03   -0.66328E-03   -0.31366E-03  2584   0.612E-02    0.142E-01
RMM:   9    -0.865907491850E+03   -0.34053E-03   -0.17889E-03  1989   0.481E-02    0.114E-01
RMM:  10    -0.865907659081E+03   -0.16723E-03   -0.69700E-04  1668   0.401E-02    0.704E-02
RMM:  11    -0.865907835554E+03   -0.17647E-03   -0.75374E-04  1551   0.339E-02    0.635E-02
RMM:  12    -0.865908175724E+03   -0.34017E-03   -0.12478E-03  1603   0.412E-02    0.560E-02
RMM:  13    -0.865908372172E+03   -0.19645E-03   -0.10989E-03  1496   0.363E-02    0.491E-02
RMM:  14    -0.865908575368E+03   -0.20320E-03   -0.55142E-04  1501   0.321E-02    0.363E-02
RMM:  15    -0.865908809625E+03   -0.23426E-03   -0.12251E-03  1498   0.313E-02    0.398E-02
RMM:  16    -0.865908987784E+03   -0.17816E-03   -0.50505E-04  1485   0.310E-02    0.323E-02
RMM:  17    -0.865909335940E+03   -0.34816E-03   -0.24183E-03  1558   0.342E-02    0.386E-02
RMM:  18    -0.865909532843E+03   -0.19690E-03   -0.69463E-04  1477   0.309E-02    0.309E-02
RMM:  19    -0.865909909161E+03   -0.37632E-03   -0.30603E-03  1557   0.351E-02    0.351E-02
RMM:  20    -0.865910285905E+03   -0.37674E-03   -0.35364E-03  1616   0.437E-02    0.310E-02
RMM:  21    -0.865910755185E+03   -0.46928E-03   -0.57468E-03  1592   0.397E-02    0.368E-02
RMM:  22    -0.865911139760E+03   -0.38458E-03   -0.37986E-03  1641   0.462E-02    0.230E-02
RMM:  23    -0.865911694123E+03   -0.55436E-03   -0.84159E-03  1638   0.445E-02    0.330E-02
RMM:  24    -0.865912055894E+03   -0.36177E-03   -0.29312E-03  1608   0.438E-02    0.164E-02
RMM:  25    -0.865912472648E+03   -0.41675E-03   -0.51718E-03  1572   0.384E-02    0.325E-02
RMM:  26    -0.865912746350E+03   -0.27370E-03   -0.15852E-03  1559   0.375E-02    0.175E-02
RMM:  27    -0.865912959739E+03   -0.21339E-03   -0.17413E-03  1459   0.290E-02    0.335E-02
RMM:  28    -0.865913107084E+03   -0.14734E-03   -0.48551E-04  1439   0.273E-02    0.214E-02
RMM:  29    -0.865913240104E+03   -0.13302E-03   -0.83249E-04  1438   0.245E-02    0.318E-02
RMM:  30    -0.865913233795E+03    0.63090E-05   -0.68504E-05  1384   0.194E-02
   4 F= -.88679463E+03 E0= -.88679450E+03  d E =-.250311E+00  mag=    -0.0000
       N       E                     dE             d eps       ncg     rms          rms(c)
DAV:   1    -0.865947111704E+03   -0.33872E-01   -0.11533E+01  2560   0.315E+00    0.138E+00
RMM:   2    -0.865987592327E+03   -0.40481E-01   -0.53989E-01  3041   0.919E-01    0.156E+00
RMM:   3    -0.865982210644E+03    0.53817E-02   -0.44953E-02  3113   0.272E-01    0.663E-01
RMM:   4    -0.865983141636E+03   -0.93099E-03   -0.16604E-02  3367   0.114E-01    0.466E-01
RMM:   5    -0.865984290161E+03   -0.11485E-02   -0.97731E-03  2908   0.124E-01    0.641E-01
RMM:   6    -0.865983918609E+03    0.37155E-03   -0.64000E-03  2945   0.931E-02    0.278E-01
RMM:   7    -0.865984550935E+03   -0.63233E-03   -0.29661E-03  2461   0.525E-02    0.109E-01
RMM:   8    -0.865985008099E+03   -0.45716E-03   -0.14766E-03  2063   0.491E-02    0.848E-02
RMM:   9    -0.865985180511E+03   -0.17241E-03   -0.10153E-03  1667   0.379E-02    0.741E-02
RMM:  10    -0.865985287897E+03   -0.10739E-03   -0.37582E-04  1506   0.360E-02    0.474E-02
RMM:  11    -0.865985396157E+03   -0.10826E-03   -0.46978E-04  1463   0.300E-02    0.422E-02
RMM:  12    -0.865985558679E+03   -0.16252E-03   -0.54646E-04  1484   0.324E-02    0.344E-02
RMM:  13    -0.865985658940E+03   -0.10026E-03   -0.54689E-04  1426   0.289E-02    0.359E-02
RMM:  14    -0.865985763102E+03   -0.10416E-03   -0.30127E-04  1427   0.277E-02    0.271E-02
RMM:  15    -0.865985908160E+03   -0.14506E-03   -0.76885E-04  1440   0.272E-02    0.302E-02
RMM:  16    -0.865986035541E+03   -0.12738E-03   -0.42339E-04  1431   0.277E-02    0.244E-02
RMM:  17    -0.865986242270E+03   -0.20673E-03   -0.16085E-03  1464   0.292E-02    0.299E-02
RMM:  18    -0.865986386146E+03   -0.14388E-03   -0.59792E-04  1443   0.285E-02    0.231E-02
RMM:  19    -0.865986642610E+03   -0.25646E-03   -0.27486E-03  1498   0.324E-02    0.273E-02
RMM:  20    -0.865986852906E+03   -0.21030E-03   -0.13966E-03  1512   0.328E-02    0.200E-02
RMM:  21    -0.865987096671E+03   -0.24377E-03   -0.27232E-03  1464   0.311E-02    0.253E-02
RMM:  22    -0.865987337218E+03   -0.24055E-03   -0.47446E-03  1585   0.458E-02    0.209E-02
RMM:  23    -0.865987611017E+03   -0.27380E-03   -0.19493E-03  1435   0.271E-02    0.260E-02
RMM:  24    -0.865987804810E+03   -0.19379E-03   -0.15538E-03  1432   0.346E-02    0.140E-02
RMM:  25    -0.865988036443E+03   -0.23163E-03   -0.26987E-03  1471   0.288E-02    0.246E-02
RMM:  26    -0.865988112650E+03   -0.76207E-04   -0.16654E-04  1357   0.226E-02
   5 F= -.88686772E+03 E0= -.88686768E+03  d E =-.323406E+00  mag=    -0.0000
       N       E                     dE             d eps       ncg     rms          rms(c)
DAV:   1    -0.866032857447E+03   -0.44821E-01   -0.37471E+00  2384   0.250E+00    0.581E-01
RMM:   2    -0.866046176784E+03   -0.13319E-01   -0.17059E-01  2947   0.811E-01    0.620E-01
RMM:   3    -0.866048461367E+03   -0.22846E-02   -0.32663E-02  3318   0.219E-01    0.494E-01
RMM:   4    -0.866048619257E+03   -0.15789E-03   -0.65860E-03  3231   0.101E-01    0.422E-01
RMM:   5    -0.866049424221E+03   -0.80496E-03   -0.91306E-03  3302   0.108E-01    0.343E-01
RMM:   6    -0.866049850086E+03   -0.42587E-03   -0.43454E-03  2911   0.835E-02    0.157E-01
RMM:   7    -0.866049850769E+03   -0.68273E-06   -0.20698E-03  2738   0.545E-02    0.109E-01
RMM:   8    -0.866049804442E+03    0.46327E-04   -0.14408E-03  2457   0.514E-02    0.703E-02
RMM:   9    -0.866049874188E+03   -0.69746E-04   -0.44827E-04  1660   0.352E-02
   6 F= -.88692931E+03 E0= -.88692925E+03  d E =-.615874E-01  mag=    -0.0000
       N       E                     dE             d eps       ncg     rms          rms(c)
DAV:   1    -0.866079331730E+03   -0.29527E-01   -0.59807E+00  2376   0.314E+00    0.761E-01
RMM:   2    -0.866101607465E+03   -0.22276E-01   -0.27973E-01  2965   0.103E+00    0.813E-01
RMM:   3    -0.866105225363E+03   -0.36179E-02   -0.54011E-02  3396   0.278E-01    0.635E-01
RMM:   4    -0.866105665287E+03   -0.43992E-03   -0.12514E-02  3343   0.126E-01    0.542E-01
RMM:   5    -0.866106908146E+03   -0.12429E-02   -0.14405E-02  3374   0.139E-01    0.458E-01
RMM:   6    -0.866107548906E+03   -0.64076E-03   -0.76794E-03  3158   0.106E-01    0.207E-01
RMM:   7    -0.866107529990E+03    0.18916E-04   -0.39203E-03  3212   0.706E-02    0.141E-01
RMM:   8    -0.866107487484E+03    0.42506E-04   -0.25677E-03  3053   0.575E-02    0.826E-02
RMM:   9    -0.866107559290E+03   -0.71806E-04   -0.66680E-04  1842   0.394E-02
   7 F= -.88698678E+03 E0= -.88698668E+03  d E =-.119058E+00  mag=    -0.0000
       N       E                     dE             d eps       ncg     rms          rms(c)
DAV:   1    -0.866043448705E+03    0.64039E-01   -0.23852E+01  2352   0.627E+00    0.160E+00
RMM:   2    -0.866136217151E+03   -0.92768E-01   -0.11503E+00  2974   0.206E+00    0.182E+00
RMM:   3    -0.866147776924E+03   -0.11560E-01   -0.20819E-01  3366   0.559E-01    0.136E+00
RMM:   4    -0.866149093675E+03   -0.13168E-02   -0.48609E-02  3440   0.246E-01    0.113E+00
RMM:   5    -0.866152964371E+03   -0.38707E-02   -0.44737E-02  3454   0.235E-01    0.103E+00
RMM:   6    -0.866154699033E+03   -0.17347E-02   -0.29855E-02  3399   0.185E-01    0.602E-01
RMM:   7    -0.866154649579E+03    0.49454E-04   -0.14419E-02  3345   0.133E-01    0.274E-01
RMM:   8    -0.866154248327E+03    0.40125E-03   -0.14845E-02  3350   0.129E-01    0.186E-01
RMM:   9    -0.866154344436E+03   -0.96109E-04   -0.25555E-03  2781   0.614E-02    0.135E-01
RMM:  10    -0.866154498260E+03   -0.15382E-03   -0.16649E-03  2507   0.490E-02    0.116E-01
RMM:  11    -0.866154729670E+03   -0.23141E-03   -0.19980E-03  2489   0.506E-02    0.915E-02
RMM:  12    -0.866154940380E+03   -0.21071E-03   -0.12512E-03  1945   0.418E-02    0.578E-02
RMM:  13    -0.866155074891E+03   -0.13451E-03   -0.79261E-04  1555   0.394E-02    0.497E-02
RMM:  14    -0.866155142573E+03   -0.67683E-04   -0.26259E-04  1490   0.305E-02
   8 F= -.88703395E+03 E0= -.88703369E+03  d E =-.166226E+00  mag=    -0.0000
       N       E                     dE             d eps       ncg     rms          rms(c)
DAV:   1    -0.866170791101E+03   -0.15716E-01   -0.82669E+00  2608   0.357E+00    0.763E-01
RMM:   2    -0.866194836687E+03   -0.24046E-01   -0.29356E-01  2898   0.103E+00    0.669E-01
RMM:   3    -0.866199638725E+03   -0.48020E-02   -0.63409E-02  3342   0.263E-01    0.482E-01
RMM:   4    -0.866199693840E+03   -0.55115E-04   -0.96360E-03  3305   0.121E-01    0.414E-01
RMM:   5    -0.866199986411E+03   -0.29257E-03   -0.70492E-03  3349   0.874E-02    0.310E-01
RMM:   6    -0.866200741245E+03   -0.75483E-03   -0.55494E-03  3256   0.756E-02    0.155E-01
RMM:   7    -0.866201143785E+03   -0.40254E-03   -0.22837E-03  2610   0.512E-02    0.842E-02
RMM:   8    -0.866201254553E+03   -0.11077E-03   -0.12478E-03  2150   0.401E-02    0.622E-02
RMM:   9    -0.866201323604E+03   -0.69051E-04   -0.38269E-04  1579   0.351E-02
   9 F= -.88708129E+03 E0= -.88708094E+03  d E =-.473387E-01  mag=    -0.0000
       N       E                     dE             d eps       ncg     rms          rms(c)
DAV:   1    -0.866203732255E+03   -0.24777E-02   -0.67986E+00  2416   0.325E+00    0.696E-01
RMM:   2    -0.866223825186E+03   -0.20093E-01   -0.24238E-01  2873   0.951E-01    0.633E-01
RMM:   3    -0.866228266935E+03   -0.44417E-02   -0.57314E-02  3444   0.249E-01    0.457E-01
RMM:   4    -0.866228440118E+03   -0.17318E-03   -0.96126E-03  3372   0.113E-01    0.391E-01
RMM:   5    -0.866228720533E+03   -0.28041E-03   -0.60182E-03  3368   0.829E-02    0.303E-01
RMM:   6    -0.866229470615E+03   -0.75008E-03   -0.52666E-03  3286   0.741E-02    0.150E-01
RMM:   7    -0.866229907878E+03   -0.43726E-03   -0.25861E-03  2640   0.481E-02    0.717E-02
RMM:   8    -0.866230003996E+03   -0.96118E-04   -0.90791E-04  2014   0.388E-02
  10 F= -.88711102E+03 E0= -.88711057E+03  d E =-.770741E-01  mag=    -0.0000
       N       E                     dE             d eps       ncg     rms          rms(c)
DAV:   1    -0.866146139648E+03    0.83768E-01   -0.27135E+01  2336   0.649E+00    0.141E+00
RMM:   2    -0.866229682513E+03   -0.83543E-01   -0.98829E-01  2907   0.192E+00    0.146E+00
RMM:   3    -0.866245600231E+03   -0.15918E-01   -0.22187E-01  3423   0.501E-01    0.989E-01
RMM:   4    -0.866245669393E+03   -0.69162E-04   -0.36842E-02  3409   0.231E-01    0.795E-01
RMM:   5    -0.866246246030E+03   -0.57664E-03   -0.23099E-02  3434   0.154E-01    0.607E-01
RMM:   6    -0.866248352904E+03   -0.21069E-02   -0.18422E-02  3385   0.141E-01    0.290E-01
RMM:   7    -0.866249414665E+03   -0.10618E-02   -0.73230E-03  3339   0.855E-02    0.137E-01
RMM:   8    -0.866249598821E+03   -0.18416E-03   -0.40666E-03  3358   0.648E-02    0.104E-01
RMM:   9    -0.866249727066E+03   -0.12825E-03   -0.17563E-03  2419   0.420E-02    0.103E-01
RMM:  10    -0.866249781570E+03   -0.54504E-04   -0.69102E-04  1884   0.422E-02
  11 F= -.88713293E+03 E0= -.88713225E+03  d E =-.989797E-01  mag=    -0.0000
       N       E                     dE             d eps       ncg     rms          rms(c)
DAV:   1    -0.866228967385E+03    0.20760E-01   -0.16414E+01  2528   0.465E+00    0.121E+00
RMM:   2    -0.866274336016E+03   -0.45369E-01   -0.52726E-01  2884   0.128E+00    0.110E+00
RMM:   3    -0.866279392533E+03   -0.50565E-02   -0.96278E-02  3324   0.343E-01    0.765E-01
RMM:   4    -0.866279739731E+03   -0.34720E-03   -0.16528E-02  3426   0.158E-01    0.597E-01
RMM:   5    -0.866281884105E+03   -0.21444E-02   -0.19977E-02  3341   0.148E-01    0.356E-01
RMM:   6    -0.866282269894E+03   -0.38579E-03   -0.46577E-03  2943   0.859E-02    0.216E-01
RMM:   7    -0.866282605585E+03   -0.33569E-03   -0.31631E-03  3181   0.606E-02    0.132E-01
RMM:   8    -0.866282878419E+03   -0.27283E-03   -0.22600E-03  2811   0.494E-02    0.939E-02
RMM:   9    -0.866282944582E+03   -0.66163E-04   -0.50415E-04  1635   0.387E-02
  12 F= -.88716725E+03 E0= -.88716650E+03  d E =-.343191E-01  mag=    -0.0000
       N       E                     dE             d eps       ncg     rms          rms(c)
DAV:   1    -0.866282854724E+03    0.23694E-04   -0.55679E-01  2720   0.860E-01    0.227E-01
RMM:   2    -0.866284440622E+03   -0.15859E-02   -0.18803E-02  2817   0.245E-01    0.207E-01
RMM:   3    -0.866284743691E+03   -0.30307E-03   -0.45457E-03  3416   0.699E-02    0.158E-01
RMM:   4    -0.866284793614E+03   -0.49924E-04   -0.88284E-04  1959   0.372E-02
  13 F= -.88716931E+03 E0= -.88716858E+03  d E =-.363861E-01  mag=    -0.0000
       N       E                     dE             d eps       ncg     rms          rms(c)
DAV:   1    -0.866285620280E+03   -0.87659E-03   -0.69485E+00  2368   0.319E+00    0.771E-01
RMM:   2    -0.866307297694E+03   -0.21677E-01   -0.26143E-01  2838   0.951E-01    0.918E-01
RMM:   3    -0.866309661840E+03   -0.23641E-02   -0.49776E-02  3375   0.251E-01    0.615E-01
RMM:   4    -0.866310095683E+03   -0.43384E-03   -0.93926E-03  3367   0.115E-01    0.554E-01
RMM:   5    -0.866310349152E+03   -0.25347E-03   -0.48508E-03  3438   0.760E-02    0.480E-01
RMM:   6    -0.866311425996E+03   -0.10768E-02   -0.74173E-03  3152   0.106E-01    0.387E-01
RMM:   7    -0.866311607459E+03   -0.18146E-03   -0.48776E-03  3008   0.851E-02    0.111E-01
RMM:   8    -0.866311742711E+03   -0.13525E-03   -0.11383E-03  2208   0.446E-02    0.921E-02
RMM:   9    -0.866311690453E+03    0.52258E-04   -0.68079E-04  1954   0.407E-02
  14 F= -.88719509E+03 E0= -.88719445E+03  d E =-.257797E-01  mag=    -0.0000
       N       E                     dE             d eps       ncg     rms          rms(c)
DAV:   1    -0.866313113343E+03   -0.13706E-02   -0.85251E-01  2720   0.111E+00    0.279E-01
RMM:   2    -0.866315892105E+03   -0.27788E-02   -0.34592E-02  2853   0.341E-01    0.324E-01
RMM:   3    -0.866316258587E+03   -0.36648E-03   -0.71440E-03  3471   0.931E-02    0.210E-01
RMM:   4    -0.866316337528E+03   -0.78941E-04   -0.14524E-03  2409   0.454E-02    0.188E-01
RMM:   5    -0.866316374949E+03   -0.37421E-04   -0.42538E-04  1661   0.389E-02
  15 F= -.88719939E+03 E0= -.88719880E+03  d E =-.300797E-01  mag=    -0.0000
       N       E                     dE             d eps       ncg     rms          rms(c)
DAV:   1    -0.866306741142E+03    0.95964E-02   -0.33691E+00  2384   0.221E+00    0.554E-01
RMM:   2    -0.866316849647E+03   -0.10109E-01   -0.12360E-01  2837   0.662E-01    0.628E-01
RMM:   3    -0.866318432522E+03   -0.15829E-02   -0.26887E-02  3478   0.177E-01    0.449E-01
RMM:   4    -0.866318735887E+03   -0.30336E-03   -0.54354E-03  3344   0.824E-02    0.403E-01
RMM:   5    -0.866318939136E+03   -0.20325E-03   -0.29704E-03  3168   0.677E-02    0.341E-01
RMM:   6    -0.866319671171E+03   -0.73203E-03   -0.42836E-03  3185   0.758E-02    0.245E-01
RMM:   7    -0.866319767973E+03   -0.96802E-04   -0.20385E-03  2385   0.593E-02    0.768E-02
RMM:   8    -0.866319860996E+03   -0.93023E-04   -0.72250E-04  1945   0.432E-02
  16 F= -.88720212E+03 E0= -.88720154E+03  d E =-.328053E-01  mag=    -0.0000
       N       E                     dE             d eps       ncg     rms          rms(c)
DAV:   1    -0.866318312516E+03    0.14555E-02   -0.50190E-01  2752   0.853E-01    0.205E-01
RMM:   2    -0.866319757468E+03   -0.14450E-02   -0.17562E-02  2726   0.252E-01    0.227E-01
RMM:   3    -0.866319879402E+03   -0.12193E-03   -0.28793E-03  2571   0.654E-02    0.153E-01
RMM:   4    -0.866319902927E+03   -0.23524E-04   -0.31082E-04  1560   0.391E-02
  17 F= -.88720245E+03 E0= -.88720192E+03  d E =-.331403E-01  mag=    -0.0000
       N       E                     dE             d eps       ncg     rms          rms(c)
DAV:   1    -0.866313946972E+03    0.59324E-02   -0.66322E+00  2368   0.304E+00    0.740E-01
RMM:   2    -0.866334588544E+03   -0.20642E-01   -0.22443E-01  2862   0.890E-01    0.831E-01
RMM:   3    -0.866336160982E+03   -0.15724E-02   -0.47863E-02  3250   0.243E-01    0.383E-01
RMM:   4    -0.866336669031E+03   -0.50805E-03   -0.72027E-03  3261   0.108E-01    0.321E-01
RMM:   5    -0.866337119492E+03   -0.45046E-03   -0.48291E-03  3316   0.700E-02    0.260E-01
RMM:   6    -0.866337603208E+03   -0.48372E-03   -0.29527E-03  3010   0.650E-02    0.140E-01
RMM:   7    -0.866337866555E+03   -0.26335E-03   -0.13087E-03  2154   0.423E-02    0.781E-02
RMM:   8    -0.866337976645E+03   -0.11009E-03   -0.60488E-04  1666   0.409E-02    0.475E-02
RMM:   9    -0.866338037617E+03   -0.60972E-04   -0.26623E-04  1470   0.361E-02
  18 F= -.88721996E+03 E0= -.88721942E+03  d E =-.175102E-01  mag=    -0.0000
       N       E                     dE             d eps       ncg     rms          rms(c)
DAV:   1    -0.866326532939E+03    0.11444E-01   -0.52562E+00  2368   0.271E+00    0.663E-01
RMM:   2    -0.866342779990E+03   -0.16247E-01   -0.17789E-01  2845   0.799E-01    0.759E-01
RMM:   3    -0.866344422981E+03   -0.16430E-02   -0.41504E-02  3412   0.223E-01    0.375E-01
RMM:   4    -0.866345009910E+03   -0.58693E-03   -0.74712E-03  3351   0.100E-01    0.319E-01
RMM:   5    -0.866345535792E+03   -0.52588E-03   -0.47084E-03  3348   0.759E-02    0.263E-01
RMM:   6    -0.866346118824E+03   -0.58303E-03   -0.34314E-03  3155   0.650E-02    0.143E-01
RMM:   7    -0.866346382830E+03   -0.26401E-03   -0.15428E-03  2351   0.448E-02    0.766E-02
RMM:   8    -0.866346496497E+03   -0.11367E-03   -0.73928E-04  1816   0.409E-02    0.507E-02
RMM:   9    -0.866346555392E+03   -0.58895E-04   -0.28164E-04  1509   0.362E-02
  19 F= -.88722805E+03 E0= -.88722753E+03  d E =-.255954E-01  mag=    -0.0000
       N       E                     dE             d eps       ncg     rms          rms(c)
DAV:   1    -0.866341559638E+03    0.49369E-02   -0.57848E+00  2368   0.282E+00    0.616E-01
RMM:   2    -0.866358569643E+03   -0.17010E-01   -0.20683E-01  2896   0.852E-01    0.587E-01
RMM:   3    -0.866362284264E+03   -0.37146E-02   -0.45182E-02  3452   0.227E-01    0.455E-01
RMM:   4    -0.866362607748E+03   -0.32348E-03   -0.80793E-03  3362   0.103E-01    0.413E-01
RMM:   5    -0.866363154023E+03   -0.54627E-03   -0.68921E-03  3344   0.912E-02    0.276E-01
RMM:   6    -0.866363789265E+03   -0.63524E-03   -0.31364E-03  3036   0.604E-02    0.147E-01
RMM:   7    -0.866363972396E+03   -0.18313E-03   -0.14110E-03  2456   0.460E-02    0.770E-02
RMM:   8    -0.866364027983E+03   -0.55587E-04   -0.81858E-04  2016   0.402E-02
  20 F= -.88724550E+03 E0= -.88724505E+03  d E =-.174546E-01  mag=    -0.0000
       N       E                     dE             d eps       ncg     rms          rms(c)
DAV:   1    -0.866363545900E+03    0.42650E-03   -0.16462E+00  2560   0.151E+00    0.335E-01
RMM:   2    -0.866368479740E+03   -0.49338E-02   -0.60390E-02  2915   0.459E-01    0.306E-01
RMM:   3    -0.866369702133E+03   -0.12224E-02   -0.14334E-02  3578   0.124E-01    0.244E-01
RMM:   4    -0.866369818715E+03   -0.11658E-03   -0.28284E-03  2988   0.575E-02    0.226E-01
RMM:   5    -0.866370058246E+03   -0.23953E-03   -0.22194E-03  2926   0.587E-02    0.154E-01
RMM:   6    -0.866370330859E+03   -0.27261E-03   -0.12057E-03  2072   0.419E-02    0.860E-02
RMM:   7    -0.866370433663E+03   -0.10280E-03   -0.39736E-04  1576   0.406E-02    0.548E-02
RMM:   8    -0.866370501989E+03   -0.68326E-04   -0.35687E-04  1498   0.337E-02
  21 F= -.88725198E+03 E0= -.88725156E+03  d E =-.239272E-01  mag=    -0.0000
       N       E                     dE             d eps       ncg     rms          rms(c)
DAV:   1    -0.866351162758E+03    0.19271E-01   -0.65556E+00  2336   0.300E+00    0.662E-01
RMM:   2    -0.866370514553E+03   -0.19352E-01   -0.23475E-01  2903   0.910E-01    0.613E-01
RMM:   3    -0.866374980962E+03   -0.44664E-02   -0.53109E-02  3535   0.245E-01    0.484E-01
RMM:   4    -0.866375375708E+03   -0.39475E-03   -0.99229E-03  3404   0.110E-01    0.439E-01
RMM:   5    -0.866376054341E+03   -0.67863E-03   -0.85692E-03  3362   0.105E-01    0.288E-01
RMM:   6    -0.866376679347E+03   -0.62501E-03   -0.35514E-03  3119   0.626E-02    0.156E-01
RMM:   7    -0.866376878209E+03   -0.19886E-03   -0.19498E-03  2815   0.526E-02    0.847E-02
RMM:   8    -0.866376945698E+03   -0.67489E-04   -0.94427E-04  2178   0.397E-02
  22 F= -.88725844E+03 E0= -.88725808E+03  d E =-.303855E-01  mag=    -0.0000
       N       E                     dE             d eps       ncg     rms          rms(c)
DAV:   1    -0.866367035780E+03    0.98424E-02   -0.70303E+00  2608   0.287E+00    0.666E-01
RMM:   2    -0.866385391391E+03   -0.18356E-01   -0.20630E-01  2818   0.805E-01    0.437E-01
RMM:   3    -0.866389673109E+03   -0.42817E-02   -0.45662E-02  3337   0.221E-01    0.399E-01
RMM:   4    -0.866390027646E+03   -0.35454E-03   -0.77187E-03  3346   0.999E-02    0.334E-01
RMM:   5    -0.866390520799E+03   -0.49315E-03   -0.42540E-03  3357   0.640E-02    0.249E-01
RMM:   6    -0.866391175767E+03   -0.65497E-03   -0.30379E-03  2892   0.684E-02    0.149E-01
RMM:   7    -0.866391553351E+03   -0.37758E-03   -0.13335E-03  2096   0.391E-02    0.104E-01
RMM:   8    -0.866391675375E+03   -0.12202E-03   -0.82805E-04  1918   0.512E-02    0.783E-02
RMM:   9    -0.866391775922E+03   -0.10055E-03   -0.47268E-04  1594   0.384E-02    0.591E-02
RMM:  10    -0.866391789217E+03   -0.13295E-04   -0.20864E-04  1448   0.326E-02
  23 F= -.88727272E+03 E0= -.88727243E+03  d E =-.142830E-01  mag=    -0.0000
       N       E                     dE             d eps       ncg     rms          rms(c)
DAV:   1    -0.866268279155E+03    0.12350E+00   -0.39822E+01  2352   0.685E+00    0.163E+00
RMM:   2    -0.866377076822E+03   -0.10880E+00   -0.11986E+00  2831   0.191E+00    0.106E+00
RMM:   3    -0.866400258871E+03   -0.23182E-01   -0.25438E-01  3301   0.534E-01    0.955E-01
RMM:   4    -0.866402139337E+03   -0.18805E-02   -0.41959E-02  3457   0.234E-01    0.810E-01
RMM:   5    -0.866403803741E+03   -0.16644E-02   -0.21939E-02  3594   0.134E-01    0.609E-01
RMM:   6    -0.866406688262E+03   -0.28845E-02   -0.17000E-02  3303   0.155E-01    0.364E-01
RMM:   7    -0.866408308822E+03   -0.16206E-02   -0.67735E-03  3348   0.773E-02    0.224E-01
RMM:   8    -0.866408939928E+03   -0.63111E-03   -0.52662E-03  3226   0.868E-02    0.153E-01
RMM:   9    -0.866409185785E+03   -0.24586E-03   -0.21116E-03  2582   0.526E-02    0.114E-01
RMM:  10    -0.866409261162E+03   -0.75377E-04   -0.92784E-04  1977   0.409E-02
  24 F= -.88728898E+03 E0= -.88728879E+03  d E =-.305456E-01  mag=    -0.0000
       N       E                     dE             d eps       ncg     rms          rms(c)
DAV:   1    -0.866397308747E+03    0.11877E-01   -0.88569E+00  2528   0.302E+00    0.741E-01
RMM:   2    -0.866419255964E+03   -0.21947E-01   -0.23990E-01  2902   0.763E-01    0.525E-01
RMM:   3    -0.866422629115E+03   -0.33732E-02   -0.40477E-02  3265   0.210E-01    0.443E-01
RMM:   4    -0.866423215929E+03   -0.58681E-03   -0.83681E-03  3379   0.927E-02    0.370E-01
RMM:   5    -0.866423902324E+03   -0.68640E-03   -0.38014E-03  3147   0.599E-02    0.279E-01
RMM:   6    -0.866424871523E+03   -0.96920E-03   -0.38402E-03  2686   0.830E-02    0.168E-01
RMM:   7    -0.866425304688E+03   -0.43316E-03   -0.19745E-03  2208   0.467E-02    0.130E-01
RMM:   8    -0.866425523462E+03   -0.21877E-03   -0.10537E-03  1927   0.557E-02    0.108E-01
RMM:   9    -0.866425629560E+03   -0.10610E-03   -0.70277E-04  1722   0.435E-02    0.870E-02
RMM:  10    -0.866425664139E+03   -0.34579E-04   -0.27629E-04  1487   0.331E-02
  25 F= -.88730421E+03 E0= -.88730407E+03  d E =-.152297E-01  mag=    -0.0000
       N       E                     dE             d eps       ncg     rms          rms(c)
DAV:   1    -0.866193128436E+03    0.23250E+00   -0.79173E+01  2344   0.903E+00    0.229E+00
RMM:   2    -0.866409514537E+03   -0.21639E+00   -0.23025E+00  2914   0.230E+00    0.170E+00
RMM:   3    -0.866436979435E+03   -0.27465E-01   -0.36933E-01  3203   0.647E-01    0.132E+00
RMM:   4    -0.866441258603E+03   -0.42792E-02   -0.66271E-02  3426   0.275E-01    0.121E+00
RMM:   5    -0.866443614101E+03   -0.23555E-02   -0.29963E-02  3565   0.153E-01    0.882E-01
RMM:   6    -0.866449496784E+03   -0.58827E-02   -0.29779E-02  3076   0.221E-01    0.534E-01
RMM:   7    -0.866452654637E+03   -0.31579E-02   -0.14398E-02  3349   0.125E-01    0.350E-01
RMM:   8    -0.866454000500E+03   -0.13459E-02   -0.88733E-03  3105   0.117E-01    0.292E-01
RMM:   9    -0.866454463919E+03   -0.46342E-03   -0.44609E-03  2814   0.841E-02    0.213E-01
RMM:  10    -0.866454680151E+03   -0.21623E-03   -0.22219E-03  2634   0.523E-02    0.184E-01
RMM:  11    -0.866455020140E+03   -0.33999E-03   -0.14014E-03  2134   0.467E-02    0.176E-01
RMM:  12    -0.866455500102E+03   -0.47996E-03   -0.32897E-03  2496   0.693E-02    0.157E-01
RMM:  13    -0.866455821449E+03   -0.32135E-03   -0.21981E-03  2131   0.526E-02    0.105E-01
RMM:  14    -0.866456006761E+03   -0.18531E-03   -0.74834E-04  1695   0.431E-02    0.104E-01
RMM:  15    -0.866456157124E+03   -0.15036E-03   -0.80731E-04  1666   0.417E-02    0.948E-02
RMM:  16    -0.866456345978E+03   -0.18885E-03   -0.11889E-03  1860   0.508E-02    0.757E-02
RMM:  17    -0.866456530440E+03   -0.18446E-03   -0.16362E-03  1953   0.510E-02    0.476E-02
RMM:  18    -0.866456699597E+03   -0.16916E-03   -0.15897E-03  1976   0.537E-02    0.338E-02
RMM:  19    -0.866456804716E+03   -0.10512E-03   -0.80492E-04  1634   0.404E-02    0.288E-02
RMM:  20    -0.866456877594E+03   -0.72878E-04   -0.48217E-04  1490   0.391E-02
  26 F= -.88733224E+03 E0= -.88733220E+03  d E =-.432548E-01  mag=    -0.0000
       N       E                     dE             d eps       ncg     rms          rms(c)
DAV:   1    -0.866410394280E+03    0.46410E-01   -0.16341E+01  2512   0.411E+00    0.104E+00
RMM:   2    -0.866451653334E+03   -0.41259E-01   -0.45298E-01  2976   0.103E+00    0.755E-01
RMM:   3    -0.866456755445E+03   -0.51021E-02   -0.69403E-02  3260   0.280E-01    0.599E-01
RMM:   4    -0.866457771685E+03   -0.10162E-02   -0.14634E-02  3444   0.123E-01    0.488E-01
RMM:   5    -0.866459166324E+03   -0.13946E-02   -0.69384E-03  3343   0.840E-02    0.363E-01
RMM:   6    -0.866460565939E+03   -0.13996E-02   -0.72773E-03  2854   0.115E-01    0.239E-01
RMM:   7    -0.866461051428E+03   -0.48549E-03   -0.29938E-03  2504   0.513E-02    0.175E-01
RMM:   8    -0.866461652361E+03   -0.60093E-03   -0.14863E-03  2230   0.586E-02    0.181E-01
RMM:   9    -0.866461735687E+03   -0.83326E-04   -0.10344E-03  1997   0.509E-02    0.152E-01
RMM:  10    -0.866461800689E+03   -0.65002E-04   -0.56845E-04  1674   0.403E-02
  27 F= -.88733569E+03 E0= -.88733567E+03  d E =-.467134E-01  mag=    -0.0000
       N       E                     dE             d eps       ncg     rms          rms(c)
DAV:   1    -0.866449076974E+03    0.12659E-01   -0.81142E+00  2560   0.277E+00    0.744E-01
RMM:   2    -0.866469391017E+03   -0.20314E-01   -0.22788E-01  3002   0.709E-01    0.431E-01
RMM:   3    -0.866472488539E+03   -0.30975E-02   -0.33192E-02  3375   0.193E-01    0.395E-01
RMM:   4    -0.866473225813E+03   -0.73727E-03   -0.81746E-03  3432   0.844E-02    0.311E-01
RMM:   5    -0.866474431970E+03   -0.12062E-02   -0.43901E-03  3063   0.773E-02    0.234E-01
RMM:   6    -0.866475370621E+03   -0.93865E-03   -0.48722E-03  2644   0.855E-02    0.197E-01
RMM:   7    -0.866475619896E+03   -0.24928E-03   -0.10480E-03  2028   0.416E-02    0.159E-01
RMM:   8    -0.866476486899E+03   -0.86700E-03   -0.18823E-03  2134   0.587E-02    0.143E-01
RMM:   9    -0.866476665035E+03   -0.17814E-03   -0.14421E-03  2055   0.504E-02    0.112E-01
RMM:  10    -0.866476994719E+03   -0.32968E-03   -0.11679E-03  1887   0.542E-02    0.988E-02
RMM:  11    -0.866477369231E+03   -0.37451E-03   -0.28752E-03  2336   0.658E-02    0.751E-02
RMM:  12    -0.866477570455E+03   -0.20122E-03   -0.13970E-03  1944   0.540E-02    0.557E-02
RMM:  13    -0.866477700152E+03   -0.12970E-03   -0.77426E-04  1686   0.418E-02    0.474E-02
RMM:  14    -0.866477784097E+03   -0.83945E-04   -0.36529E-04  1524   0.396E-02
  28 F= -.88735146E+03 E0= -.88735145E+03  d E =-.157667E-01  mag=    -0.0000
       N       E                     dE             d eps       ncg     rms          rms(c)
DAV:   1    -0.866259397277E+03    0.21830E+00   -0.72466E+01  2336   0.830E+00    0.232E+00
RMM:   2    -0.866461702199E+03   -0.20230E+00   -0.22064E+00  3027   0.213E+00    0.136E+00
RMM:   3    -0.866486346119E+03   -0.24644E-01   -0.28400E-01  3267   0.595E-01    0.114E+00
RMM:   4    -0.866491687548E+03   -0.53414E-02   -0.67219E-02  3463   0.258E-01    0.969E-01
RMM:   5    -0.866496798816E+03   -0.51113E-02   -0.34574E-02  3430   0.182E-01    0.635E-01
RMM:   6    -0.866502382621E+03   -0.55838E-02   -0.27000E-02  3116   0.188E-01    0.432E-01
RMM:   7    -0.866503405182E+03   -0.10226E-02   -0.10304E-02  3473   0.926E-02    0.311E-01
RMM:   8    -0.866505806299E+03   -0.24011E-02   -0.69848E-03  3332   0.901E-02    0.209E-01
RMM:   9    -0.866506382717E+03   -0.57642E-03   -0.43656E-03  2816   0.751E-02    0.195E-01
RMM:  10    -0.866506780808E+03   -0.39809E-03   -0.22132E-03  2599   0.501E-02    0.129E-01
RMM:  11    -0.866507387949E+03   -0.60714E-03   -0.23946E-03  2418   0.597E-02    0.948E-02
RMM:  12    -0.866507630056E+03   -0.24211E-03   -0.15308E-03  2044   0.477E-02    0.828E-02
RMM:  13    -0.866507763316E+03   -0.13326E-03   -0.91140E-04  1743   0.453E-02    0.485E-02
RMM:  14    -0.866507862837E+03   -0.99521E-04   -0.50857E-04  1564   0.389E-02
  29 F= -.88738101E+03 E0= -.88738099E+03  d E =-.453175E-01  mag=    -0.0000
       N       E                     dE             d eps       ncg     rms          rms(c)
DAV:   1    -0.866494765572E+03    0.12998E-01   -0.47216E+00  2816   0.213E+00    0.580E-01
RMM:   2    -0.866506288121E+03   -0.11523E-01   -0.13189E-01  2995   0.540E-01    0.365E-01
RMM:   3    -0.866507857223E+03   -0.15691E-02   -0.19541E-02  3449   0.149E-01    0.307E-01
RMM:   4    -0.866508326069E+03   -0.46885E-03   -0.52967E-03  3237   0.653E-02    0.232E-01
RMM:   5    -0.866509074845E+03   -0.74878E-03   -0.29294E-03  2939   0.627E-02    0.124E-01
RMM:   6    -0.866509443858E+03   -0.36901E-03   -0.15021E-03  2065   0.470E-02    0.845E-02
RMM:   7    -0.866509484914E+03   -0.41055E-04   -0.44846E-04  1615   0.397E-02
  30 F= -.88738252E+03 E0= -.88738249E+03  d E =-.468278E-01  mag=    -0.0000
       N       E                     dE             d eps       ncg     rms          rms(c)
DAV:   1    -0.866512641102E+03   -0.31972E-02   -0.37942E+00  2544   0.197E+00    0.558E-01
RMM:   2    -0.866522186135E+03   -0.95450E-02   -0.11270E-01  2860   0.559E-01    0.542E-01
RMM:   3    -0.866523332574E+03   -0.11464E-02   -0.19001E-02  3430   0.159E-01    0.396E-01
RMM:   4    -0.866523900104E+03   -0.56753E-03   -0.47016E-03  3192   0.726E-02    0.342E-01
RMM:   5    -0.866524835025E+03   -0.93492E-03   -0.39836E-03  3176   0.745E-02    0.178E-01
RMM:   6    -0.866525038171E+03   -0.20315E-03   -0.13379E-03  2079   0.475E-02    0.934E-02
RMM:   7    -0.866525077262E+03   -0.39091E-04   -0.64190E-04  1860   0.422E-02
  31 F= -.88739808E+03 E0= -.88739805E+03  d E =-.155590E-01  mag=    -0.0000
       N       E                     dE             d eps       ncg     rms          rms(c)
DAV:   1    -0.866526111941E+03   -0.10738E-02   -0.14374E+00  2544   0.121E+00    0.340E-01
RMM:   2    -0.866529722242E+03   -0.36103E-02   -0.43552E-02  2858   0.349E-01    0.329E-01
RMM:   3    -0.866530255703E+03   -0.53346E-03   -0.79607E-03  3447   0.101E-01    0.250E-01
RMM:   4    -0.866530488044E+03   -0.23234E-03   -0.19543E-03  2407   0.486E-02    0.217E-01
RMM:   5    -0.866530968582E+03   -0.48054E-03   -0.19679E-03  2649   0.558E-02    0.123E-01
RMM:   6    -0.866531056171E+03   -0.87590E-04   -0.58717E-04  1652   0.406E-02
  32 F= -.88740404E+03 E0= -.88740401E+03  d E =-.215219E-01  mag=    -0.0000
       N       E                     dE             d eps       ncg     rms          rms(c)
DAV:   1    -0.866515781732E+03    0.15187E-01   -0.57275E+00  2384   0.241E+00    0.677E-01
RMM:   2    -0.866530214240E+03   -0.14433E-01   -0.17131E-01  2858   0.697E-01    0.665E-01
RMM:   3    -0.866532258055E+03   -0.20438E-02   -0.30086E-02  3452   0.199E-01    0.520E-01
RMM:   4    -0.866532961220E+03   -0.70316E-03   -0.71054E-03  3363   0.901E-02    0.455E-01
RMM:   5    -0.866534350775E+03   -0.13896E-02   -0.74087E-03  3314   0.974E-02    0.246E-01
RMM:   6    -0.866534616703E+03   -0.26593E-03   -0.20053E-03  2538   0.595E-02    0.147E-01
RMM:   7    -0.866534628850E+03   -0.12147E-04   -0.19718E-03  2733   0.543E-02    0.621E-02
RMM:   8    -0.866534685205E+03   -0.56355E-04   -0.55756E-04  1775   0.390E-02
  33 F= -.88740765E+03 E0= -.88740762E+03  d E =-.251284E-01  mag=    -0.0000
       N       E                     dE             d eps       ncg     rms          rms(c)
DAV:   1    -0.866529799197E+03    0.48297E-02   -0.58061E+00  2400   0.248E+00    0.671E-01
RMM:   2    -0.866544454068E+03   -0.14655E-01   -0.16827E-01  2874   0.693E-01    0.578E-01
RMM:   3    -0.866546426110E+03   -0.19720E-02   -0.27666E-02  3399   0.197E-01    0.454E-01
RMM:   4    -0.866547173148E+03   -0.74704E-03   -0.67387E-03  3384   0.824E-02    0.382E-01
RMM:   5    -0.866548466573E+03   -0.12934E-02   -0.59554E-03  3275   0.903E-02    0.139E-01
RMM:   6    -0.866548622624E+03   -0.15605E-03   -0.15033E-03  2292   0.509E-02    0.823E-02
RMM:   7    -0.866548672876E+03   -0.50252E-04   -0.10590E-03  2239   0.448E-02    0.503E-02
RMM:   8    -0.866548732483E+03   -0.59607E-04   -0.33386E-04  1556   0.363E-02
  34 F= -.88742099E+03 E0= -.88742092E+03  d E =-.133420E-01  mag=    -0.0000
       N       E                     dE             d eps       ncg     rms          rms(c)
DAV:   1    -0.866548876999E+03   -0.20412E-03   -0.10645E+00  2560   0.107E+00    0.288E-01
RMM:   2    -0.866551583271E+03   -0.27063E-02   -0.31975E-02  2860   0.302E-01    0.263E-01
RMM:   3    -0.866551970900E+03   -0.38763E-03   -0.57045E-03  3428   0.854E-02    0.202E-01
RMM:   4    -0.866552125467E+03   -0.15457E-03   -0.12462E-03  2070   0.401E-02    0.173E-01
RMM:   5    -0.866552455269E+03   -0.32980E-03   -0.10206E-03  2140   0.473E-02    0.744E-02
RMM:   6    -0.866552556026E+03   -0.10076E-03   -0.38147E-04  1547   0.387E-02    0.350E-02
RMM:   7    -0.866552565719E+03   -0.96923E-05   -0.14642E-04  1422   0.333E-02
  35 F= -.88742453E+03 E0= -.88742443E+03  d E =-.168761E-01  mag=    -0.0000
       N       E                     dE             d eps       ncg     rms          rms(c)
DAV:   1    -0.866542145311E+03    0.10411E-01   -0.42400E+00  2368   0.215E+00    0.582E-01
RMM:   2    -0.866553099318E+03   -0.10954E-01   -0.12557E-01  2927   0.592E-01    0.546E-01
RMM:   3    -0.866554275526E+03   -0.11762E-02   -0.20548E-02  3441   0.168E-01    0.403E-01
RMM:   4    -0.866554832442E+03   -0.55692E-03   -0.49769E-03  3330   0.692E-02    0.344E-01
RMM:   5    -0.866555873129E+03   -0.10407E-02   -0.47671E-03  3217   0.828E-02    0.135E-01
RMM:   6    -0.866555989393E+03   -0.11626E-03   -0.13192E-03  2243   0.475E-02    0.682E-02
RMM:   7    -0.866556040692E+03   -0.51299E-04   -0.76039E-04  1997   0.415E-02
  36 F= -.88742741E+03 E0= -.88742724E+03  d E =-.197567E-01  mag=    -0.0000
       N       E                     dE             d eps       ncg     rms          rms(c)
DAV:   1    -0.866559141133E+03   -0.31517E-02   -0.21796E+00  2368   0.166E+00    0.382E-01
RMM:   2    -0.866564737629E+03   -0.55965E-02   -0.66555E-02  2912   0.474E-01    0.348E-01
RMM:   3    -0.866565803008E+03   -0.10654E-02   -0.12129E-02  3356   0.128E-01    0.294E-01
RMM:   4    -0.866566009088E+03   -0.20608E-03   -0.23713E-03  2810   0.591E-02    0.284E-01
RMM:   5    -0.866566424640E+03   -0.41555E-03   -0.29820E-03  3013   0.644E-02    0.144E-01
RMM:   6    -0.866566524109E+03   -0.99469E-04   -0.54665E-04  1737   0.395E-02
  37 F= -.88743708E+03 E0= -.88743683E+03  d E =-.966860E-02  mag=    -0.0000
       N       E                     dE             d eps       ncg     rms          rms(c)
DAV:   1    -0.866537707897E+03    0.28717E-01   -0.11363E+01  2336   0.380E+00    0.876E-01
RMM:   2    -0.866568177565E+03   -0.30470E-01   -0.35489E-01  2951   0.109E+00    0.822E-01
RMM:   3    -0.866573197997E+03   -0.50204E-02   -0.60341E-02  3379   0.291E-01    0.691E-01
RMM:   4    -0.866574086419E+03   -0.88842E-03   -0.12577E-02  3420   0.126E-01    0.682E-01
RMM:   5    -0.866575932068E+03   -0.18456E-02   -0.18514E-02  3274   0.149E-01    0.356E-01
RMM:   6    -0.866576358217E+03   -0.42615E-03   -0.33014E-03  2985   0.813E-02    0.190E-01
RMM:   7    -0.866575968850E+03    0.38937E-03   -0.55874E-03  3235   0.836E-02    0.105E-01
RMM:   8    -0.866575994477E+03   -0.25627E-04   -0.11890E-03  2400   0.510E-02    0.804E-02
RMM:   9    -0.866576010082E+03   -0.15605E-04   -0.48516E-04  1833   0.342E-02
  38 F= -.88744471E+03 E0= -.88744415E+03  d E =-.172977E-01  mag=    -0.0000
       N       E                     dE             d eps       ncg     rms          rms(c)
DAV:   1    -0.866577206124E+03   -0.12116E-02   -0.13597E+00  2688   0.132E+00    0.273E-01
RMM:   2    -0.866580820204E+03   -0.36141E-02   -0.40812E-02  2914   0.353E-01    0.245E-01
RMM:   3    -0.866581309002E+03   -0.48880E-03   -0.68999E-03  3380   0.975E-02    0.178E-01
RMM:   4    -0.866581434918E+03   -0.12592E-03   -0.15511E-03  2249   0.432E-02    0.147E-01
RMM:   5    -0.866581560056E+03   -0.12514E-03   -0.64550E-04  1875   0.428E-02    0.960E-02
RMM:   6    -0.866581725055E+03   -0.16500E-03   -0.57096E-04  1795   0.416E-02    0.521E-02
RMM:   7    -0.866581772422E+03   -0.47367E-04   -0.22312E-04  1463   0.364E-02
  39 F= -.88745058E+03 E0= -.88744991E+03  d E =-.587751E-02  mag=    -0.0000
       N       E                     dE             d eps       ncg     rms          rms(c)
DAV:   1    -0.866554298285E+03    0.27427E-01   -0.12177E+01  2336   0.395E+00    0.838E-01
RMM:   2    -0.866587367148E+03   -0.33069E-01   -0.35925E-01  2985   0.101E+00    0.837E-01
RMM:   3    -0.866589430415E+03   -0.20633E-02   -0.50258E-02  3304   0.284E-01    0.522E-01
RMM:   4    -0.866590702776E+03   -0.12724E-02   -0.13138E-02  3590   0.113E-01    0.414E-01
RMM:   5    -0.866591562309E+03   -0.85953E-03   -0.67040E-03  3326   0.983E-02    0.273E-01
RMM:   6    -0.866592446240E+03   -0.88393E-03   -0.38865E-03  3207   0.664E-02    0.159E-01
RMM:   7    -0.866592616719E+03   -0.17048E-03   -0.14240E-03  2249   0.474E-02    0.733E-02
RMM:   8    -0.866592713883E+03   -0.97164E-04   -0.10310E-03  2196   0.444E-02    0.511E-02
RMM:   9    -0.866592754367E+03   -0.40484E-04   -0.45781E-04  1656   0.381E-02
  40 F= -.88746191E+03 E0= -.88746080E+03  d E =-.172087E-01  mag=    -0.0000
       N       E                     dE             d eps       ncg     rms          rms(c)
DAV:   1    -0.866588389427E+03    0.43245E-02   -0.18673E+00  2352   0.155E+00    0.330E-01
RMM:   2    -0.866593546500E+03   -0.51571E-02   -0.56213E-02  2947   0.408E-01    0.376E-01
RMM:   3    -0.866593862888E+03   -0.31639E-03   -0.91315E-03  3443   0.115E-01    0.215E-01
RMM:   4    -0.866594136771E+03   -0.27388E-03   -0.25102E-03  2804   0.511E-02    0.167E-01
RMM:   5    -0.866594323080E+03   -0.18631E-03   -0.93623E-04  2090   0.454E-02    0.116E-01
RMM:   6    -0.866594558606E+03   -0.23553E-03   -0.87291E-04  2021   0.453E-02    0.678E-02
RMM:   7    -0.866594610476E+03   -0.51870E-04   -0.33416E-04  1543   0.371E-02
  41 F= -.88746391E+03 E0= -.88746258E+03  d E =-.192030E-01  mag=    -0.0000
       N       E                     dE             d eps       ncg     rms          rms(c)
DAV:   1    -0.866597787729E+03   -0.32291E-02   -0.91883E-01  2448   0.110E+00    0.371E-01
RMM:   2    -0.866601226072E+03   -0.34383E-02   -0.35224E-02  2978   0.322E-01    0.737E-01
RMM:   3    -0.866599954106E+03    0.12720E-02   -0.51633E-03  3175   0.941E-02    0.304E-01
RMM:   4    -0.866600477939E+03   -0.52383E-03   -0.10569E-03  2020   0.401E-02    0.276E-01
RMM:   5    -0.866601136214E+03   -0.65828E-03   -0.18870E-03  2317   0.598E-02    0.433E-01
RMM:   6    -0.866600455627E+03    0.68059E-03   -0.10259E-03  1949   0.488E-02    0.118E-01
RMM:   7    -0.866600654822E+03   -0.19919E-03   -0.67721E-04  1543   0.400E-02    0.535E-02
RMM:   8    -0.866600724325E+03   -0.69503E-04   -0.16036E-04  1421   0.334E-02
  42 F= -.88747012E+03 E0= -.88746888E+03  d E =-.620691E-02  mag=    -0.0000
       N       E                     dE             d eps       ncg     rms          rms(c)
DAV:   1    -0.866597429971E+03    0.32249E-02   -0.22536E+00  2352   0.173E+00    0.554E-01
RMM:   2    -0.866605237156E+03   -0.78072E-02   -0.83786E-02  2997   0.500E-01    0.101E+00
RMM:   3    -0.866603310114E+03    0.19270E-02   -0.12029E-02  3251   0.145E-01    0.462E-01
RMM:   4    -0.866604275450E+03   -0.96534E-03   -0.31505E-03  3098   0.599E-02    0.425E-01
RMM:   5    -0.866605869366E+03   -0.15939E-02   -0.54283E-03  3075   0.860E-02    0.680E-01
RMM:   6    -0.866604162507E+03    0.17069E-02   -0.26395E-03  2636   0.655E-02    0.149E-01
RMM:   7    -0.866604637221E+03   -0.47471E-03   -0.12392E-03  1921   0.465E-02    0.701E-02
RMM:   8    -0.866604692937E+03   -0.55715E-04   -0.55816E-04  1834   0.413E-02
  43 F= -.88747423E+03 E0= -.88747313E+03  d E =-.103230E-01  mag=    -0.0000
       N       E                     dE             d eps       ncg     rms          rms(c)
DAV:   1    -0.866605288526E+03   -0.65130E-03   -0.15448E+00  2416   0.142E+00    0.304E-01
RMM:   2    -0.866609560924E+03   -0.42724E-02   -0.47882E-02  2898   0.388E-01    0.255E-01
RMM:   3    -0.866610291728E+03   -0.73080E-03   -0.86577E-03  3332   0.107E-01    0.230E-01
RMM:   4    -0.866610364890E+03   -0.73162E-04   -0.16642E-03  2313   0.461E-02    0.199E-01
RMM:   5    -0.866610555732E+03   -0.19084E-03   -0.15354E-03  2477   0.509E-02    0.125E-01
RMM:   6    -0.866610663478E+03   -0.10775E-03   -0.41453E-04  1605   0.383E-02    0.577E-02
RMM:   7    -0.866610668131E+03   -0.46530E-05   -0.19105E-04  1446   0.369E-02
  44 F= -.88747959E+03 E0= -.88747852E+03  d E =-.535818E-02  mag=    -0.0001
       N       E                     dE             d eps       ncg     rms          rms(c)
DAV:   1    -0.866589924585E+03    0.20739E-01   -0.77705E+00  2336   0.319E+00    0.689E-01
RMM:   2    -0.866611917565E+03   -0.21993E-01   -0.24379E-01  2932   0.862E-01    0.582E-01
RMM:   3    -0.866615098716E+03   -0.31812E-02   -0.40152E-02  3404   0.234E-01    0.506E-01
RMM:   4    -0.866615648890E+03   -0.55017E-03   -0.93231E-03  3480   0.982E-02    0.447E-01
RMM:   5    -0.866616399581E+03   -0.75069E-03   -0.86193E-03  3308   0.104E-01    0.281E-01
RMM:   6    -0.866616781347E+03   -0.38177E-03   -0.23132E-03  2875   0.591E-02    0.120E-01
RMM:   7    -0.866616793287E+03   -0.11940E-04   -0.20569E-03  2906   0.527E-02    0.673E-02
RMM:   8    -0.866616839937E+03   -0.46650E-04   -0.53832E-04  1764   0.372E-02
  45 F= -.88748438E+03 E0= -.88748328E+03  d E =-.101496E-01  mag=    -0.0001
       N       E                     dE             d eps       ncg     rms          rms(c)
DAV:   1    -0.866617578307E+03   -0.78502E-03   -0.95770E-01  2544   0.105E+00    0.238E-01
RMM:   2    -0.866620047478E+03   -0.24692E-02   -0.27687E-02  2903   0.281E-01    0.154E-01
RMM:   3    -0.866620526453E+03   -0.47898E-03   -0.52517E-03  3355   0.782E-02    0.150E-01
RMM:   4    -0.866620563965E+03   -0.37511E-04   -0.10658E-03  1889   0.377E-02    0.114E-01
RMM:   5    -0.866620694218E+03   -0.13025E-03   -0.50474E-04  1674   0.387E-02    0.689E-02
RMM:   6    -0.866620797653E+03   -0.10344E-03   -0.31530E-04  1495   0.385E-02    0.298E-02
RMM:   7    -0.866620820782E+03   -0.23129E-04   -0.13721E-04  1418   0.343E-02
  46 F= -.88748788E+03 E0= -.88748681E+03  d E =-.349621E-02  mag=    -0.0001
       N       E                     dE             d eps       ncg     rms          rms(c)
DAV:   1    -0.866601276502E+03    0.19521E-01   -0.85841E+00  2336   0.315E+00    0.680E-01
RMM:   2    -0.866623373009E+03   -0.22097E-01   -0.24099E-01  2946   0.809E-01    0.454E-01
RMM:   3    -0.866626591864E+03   -0.32189E-02   -0.38871E-02  3356   0.224E-01    0.427E-01
RMM:   4    -0.866626907851E+03   -0.31599E-03   -0.82977E-03  3470   0.944E-02    0.315E-01
RMM:   5    -0.866627654935E+03   -0.74708E-03   -0.54536E-03  3304   0.803E-02    0.187E-01
RMM:   6    -0.866628121100E+03   -0.46617E-03   -0.19297E-03  2724   0.510E-02    0.922E-02
RMM:   7    -0.866628188703E+03   -0.67603E-04   -0.10382E-03  2238   0.438E-02    0.511E-02
RMM:   8    -0.866628252307E+03   -0.63604E-04   -0.44579E-04  1678   0.375E-02
  47 F= -.88749386E+03 E0= -.88749279E+03  d E =-.947701E-02  mag=    -0.0002
       N       E                     dE             d eps       ncg     rms          rms(c)
DAV:   1    -0.866628003369E+03    0.18533E-03   -0.23914E-01  2672   0.526E-01    0.123E-01
RMM:   2    -0.866628653783E+03   -0.65041E-03   -0.73127E-03  2775   0.148E-01    0.823E-02
RMM:   3    -0.866628789090E+03   -0.13531E-03   -0.14125E-03  2250   0.444E-02    0.774E-02
RMM:   4    -0.866628828035E+03   -0.38945E-04   -0.44674E-04  1631   0.395E-02
  48 F= -.88749419E+03 E0= -.88749311E+03  d E =-.981200E-02  mag=    -0.0002
       N       E                     dE             d eps       ncg     rms          rms(c)
DAV:   1    -0.866630164277E+03   -0.13752E-02   -0.55065E-01  2400   0.854E-01    0.212E-01
RMM:   2    -0.866631696440E+03   -0.15322E-02   -0.17791E-02  2841   0.238E-01    0.251E-01
RMM:   3    -0.866631805371E+03   -0.10893E-03   -0.30200E-03  2944   0.659E-02    0.176E-01
RMM:   4    -0.866631862763E+03   -0.57393E-04   -0.54278E-04  1708   0.346E-02
  49 F= -.88749741E+03 E0= -.88749626E+03  d E =-.321546E-02  mag=    -0.0002
       N       E                     dE             d eps       ncg     rms          rms(c)
DAV:   1    -0.866628578871E+03    0.32265E-02   -0.20834E+00  2368   0.166E+00    0.459E-01
RMM:   2    -0.866634329504E+03   -0.57506E-02   -0.64952E-02  2869   0.456E-01    0.563E-01
RMM:   3    -0.866634672474E+03   -0.34297E-03   -0.11914E-02  3364   0.129E-01    0.400E-01
RMM:   4    -0.866634942379E+03   -0.26991E-03   -0.25051E-03  2831   0.562E-02    0.374E-01
RMM:   5    -0.866635192914E+03   -0.25053E-03   -0.22580E-03  2803   0.604E-02    0.224E-01
RMM:   6    -0.866635605839E+03   -0.41293E-03   -0.14238E-03  2412   0.514E-02    0.130E-01
RMM:   7    -0.866635585164E+03    0.20676E-04   -0.43313E-04  1621   0.381E-02
  50 F= -.88750148E+03 E0= -.88749997E+03  d E =-.729046E-02  mag=    -0.0001
       N       E                     dE             d eps       ncg     rms          rms(c)
DAV:   1    -0.866605053176E+03    0.30553E-01   -0.83786E+00  2368   0.333E+00    0.894E-01
RMM:   2    -0.866632387323E+03   -0.27334E-01   -0.27888E-01  2978   0.919E-01    0.128E+00
RMM:   3    -0.866629827598E+03    0.25597E-02   -0.42816E-02  3333   0.257E-01    0.658E-01
RMM:   4    -0.866631222810E+03   -0.13952E-02   -0.98464E-03  3498   0.104E-01    0.605E-01
RMM:   5    -0.866632619973E+03   -0.13972E-02   -0.79221E-03  3341   0.998E-02    0.600E-01
RMM:   6    -0.866632935487E+03   -0.31551E-03   -0.75131E-03  3294   0.887E-02    0.438E-01
RMM:   7    -0.866632638373E+03    0.29711E-03   -0.14991E-03  2437   0.530E-02    0.138E-01
RMM:   8    -0.866632720020E+03   -0.81647E-04   -0.17355E-03  2621   0.556E-02    0.824E-02
RMM:   9    -0.866632735437E+03   -0.15417E-04   -0.48096E-04  1711   0.382E-02
  51 F= -.88749934E+03 E0= -.88749721E+03  d E =-.514887E-02  mag=    -0.0001
       N       E                     dE             d eps       ncg     rms          rms(c)
DAV:   1    -0.866622155898E+03    0.10564E-01   -0.45702E+00  2408   0.247E+00    0.618E-01
RMM:   2    -0.866635816453E+03   -0.13661E-01   -0.14575E-01  2888   0.669E-01    0.101E+00
RMM:   3    -0.866634749803E+03    0.10666E-02   -0.21599E-02  3147   0.188E-01    0.516E-01
RMM:   4    -0.866635701935E+03   -0.95213E-03   -0.39575E-03  2923   0.793E-02    0.463E-01
RMM:   5    -0.866635796482E+03   -0.94547E-04   -0.25879E-03  2818   0.583E-02    0.370E-01
RMM:   6    -0.866636153255E+03   -0.35677E-03   -0.33136E-03  2822   0.731E-02    0.125E-01
RMM:   7    -0.866636222347E+03   -0.69091E-04   -0.40120E-04  1620   0.431E-02
  52 F= -.88750230E+03 E0= -.88750056E+03  d E =-.811098E-02  mag=     0.0000
       N       E                     dE             d eps       ncg     rms          rms(c)
DAV:   1    -0.866635500137E+03    0.65312E-03   -0.13016E+00  2336   0.128E+00    0.319E-01
RMM:   2    -0.866639514403E+03   -0.40143E-02   -0.41637E-02  2806   0.374E-01    0.437E-01
RMM:   3    -0.866639489060E+03    0.25343E-04   -0.71263E-03  3060   0.104E-01    0.222E-01
RMM:   4    -0.866639668555E+03   -0.17949E-03   -0.94225E-04  1954   0.472E-02    0.191E-01
RMM:   5    -0.866639827850E+03   -0.15929E-03   -0.10101E-03  2061   0.490E-02    0.151E-01
RMM:   6    -0.866639847343E+03   -0.19493E-04   -0.49823E-04  1631   0.401E-02
  53 F= -.88750530E+03 E0= -.88750341E+03  d E =-.299157E-02  mag=    -0.0001
       N       E                     dE             d eps       ncg     rms          rms(c)
DAV:   1    -0.866634676147E+03    0.51517E-02   -0.18960E+00  2336   0.154E+00    0.376E-01
RMM:   2    -0.866640416174E+03   -0.57400E-02   -0.63603E-02  2851   0.459E-01    0.468E-01
RMM:   3    -0.866640973874E+03   -0.55770E-03   -0.12714E-02  3390   0.130E-01    0.274E-01
RMM:   4    -0.866641289524E+03   -0.31565E-03   -0.26733E-03  2817   0.576E-02    0.239E-01
RMM:   5    -0.866641668218E+03   -0.37869E-03   -0.26975E-03  2898   0.623E-02    0.139E-01
RMM:   6    -0.866641804372E+03   -0.13615E-03   -0.67334E-04  1829   0.389E-02    0.668E-02
RMM:   7    -0.866641785631E+03    0.18742E-04   -0.41773E-04  1603   0.407E-02
  54 F= -.88750647E+03 E0= -.88750443E+03  d E =-.416692E-02  mag=    -0.0001
       N       E                     dE             d eps       ncg     rms          rms(c)
DAV:   1    -0.866641314152E+03    0.49022E-03   -0.11635E-01  2712   0.383E-01    0.997E-02
RMM:   2    -0.866641652041E+03   -0.33789E-03   -0.37067E-03  2587   0.110E-01    0.158E-01
RMM:   3    -0.866641587593E+03    0.64448E-04   -0.39704E-04  1590   0.333E-02
  55 F= -.88750646E+03 E0= -.88750450E+03  d E =-.415834E-02  mag=    -0.0001
       N       E                     dE             d eps       ncg     rms          rms(c)
DAV:   1    -0.866641635200E+03    0.16842E-04   -0.44741E-02  2512   0.238E-01    0.585E-02
RMM:   2    -0.866641783621E+03   -0.14842E-03   -0.13893E-03  2234   0.690E-02    0.521E-02
RMM:   3    -0.866641804803E+03   -0.21182E-04   -0.20704E-04  1399   0.295E-02
  56 F= -.88750656E+03 E0= -.88750442E+03  d E =-.425702E-02  mag=    -0.0001
       N       E                     dE             d eps       ncg     rms          rms(c)
DAV:   1    -0.866641739256E+03    0.44365E-04   -0.10830E-02  2832   0.120E-01    0.328E-02
RMM:   2    -0.866641769079E+03   -0.29823E-04   -0.26063E-04  1368   0.334E-02
  57 F= -.88750658E+03 E0= -.88750449E+03  d E =-.428056E-02  mag=    -0.0001
       N       E                     dE             d eps       ncg     rms          rms(c)
DAV:   1    -0.866641800824E+03   -0.61568E-04   -0.24009E-03  2632   0.579E-02    0.179E-02
RMM:   2    -0.866641814474E+03   -0.13650E-04   -0.64245E-05  1237   0.187E-02
  58 F= -.88750660E+03 E0= -.88750456E+03  d E =-.429798E-02  mag=    -0.0001
       N       E                     dE             d eps       ncg     rms          rms(c)
DAV:   1    -0.866640467010E+03    0.13338E-02   -0.15752E+00  2336   0.131E+00    0.296E-01
RMM:   2    -0.866644334081E+03   -0.38671E-02   -0.41138E-02  2805   0.341E-01    0.291E-01
RMM:   3    -0.866644771535E+03   -0.43745E-03   -0.71209E-03  3148   0.101E-01    0.236E-01
RMM:   4    -0.866644863033E+03   -0.91497E-04   -0.12859E-03  1993   0.446E-02    0.138E-01
RMM:   5    -0.866645085300E+03   -0.22227E-03   -0.73730E-04  1926   0.426E-02    0.790E-02
RMM:   6    -0.866645203362E+03   -0.11806E-03   -0.32781E-04  1477   0.363E-02    0.418E-02
RMM:   7    -0.866645221379E+03   -0.18018E-04   -0.13481E-04  1413   0.350E-02
  59 F= -.88750948E+03 E0= -.88750732E+03  d E =-.288006E-02  mag=    -0.0001
       N       E                     dE             d eps       ncg     rms          rms(c)
DAV:   1    -0.866607935531E+03    0.37268E-01   -0.14178E+01  2336   0.392E+00    0.922E-01
RMM:   2    -0.866645380505E+03   -0.37445E-01   -0.38029E-01  2902   0.102E+00    0.102E+00
RMM:   3    -0.866647721442E+03   -0.23409E-02   -0.62610E-02  3301   0.297E-01    0.652E-01
RMM:   4    -0.866649399544E+03   -0.16781E-02   -0.14850E-02  3492   0.124E-01    0.434E-01
RMM:   5    -0.866650857560E+03   -0.14580E-02   -0.82233E-03  3350   0.972E-02    0.267E-01
RMM:   6    -0.866651565149E+03   -0.70759E-03   -0.29703E-03  2938   0.625E-02    0.113E-01
RMM:   7    -0.866651791299E+03   -0.22615E-03   -0.17121E-03  2645   0.474E-02    0.807E-02
RMM:   8    -0.866651872410E+03   -0.81111E-04   -0.64800E-04  1899   0.386E-02
  60 F= -.88751456E+03 E0= -.88751193E+03  d E =-.795810E-02  mag=    -0.0001
       N       E                     dE             d eps       ncg     rms          rms(c)
DAV:   1    -0.866649346202E+03    0.24451E-02   -0.24300E+00  2336   0.151E+00    0.433E-01
RMM:   2    -0.866656073552E+03   -0.67274E-02   -0.64453E-02  2981   0.375E-01    0.686E-01
RMM:   3    -0.866654910099E+03    0.11635E-02   -0.80363E-03  3082   0.108E-01    0.265E-01
RMM:   4    -0.866655541823E+03   -0.63172E-03   -0.17740E-03  2068   0.522E-02    0.180E-01
RMM:   5    -0.866655862893E+03   -0.32107E-03   -0.72955E-04  1930   0.442E-02    0.125E-01
RMM:   6    -0.866656141263E+03   -0.27837E-03   -0.57822E-04  1710   0.425E-02    0.107E-01
RMM:   7    -0.866656153447E+03   -0.12184E-04   -0.17859E-04  1434   0.368E-02
  61 F= -.88751865E+03 E0= -.88751593E+03  d E =-.409298E-02  mag=    -0.0000
       N       E                     dE             d eps       ncg     rms          rms(c)
DAV:   1    -0.866630163615E+03    0.25978E-01   -0.10779E+01  2336   0.318E+00    0.977E-01
RMM:   2    -0.866662769839E+03   -0.32606E-01   -0.28990E-01  3020   0.793E-01    0.150E+00
RMM:   3    -0.866655142794E+03    0.76270E-02   -0.35952E-02  3179   0.234E-01    0.463E-01
RMM:   4    -0.866658127614E+03   -0.29848E-02   -0.88491E-03  3288   0.102E-01    0.381E-01
RMM:   5    -0.866660318994E+03   -0.21914E-02   -0.57208E-03  3287   0.798E-02    0.622E-01
RMM:   6    -0.866659524405E+03    0.79459E-03   -0.40703E-03  2994   0.727E-02    0.364E-01
RMM:   7    -0.866659821746E+03   -0.29734E-03   -0.81667E-04  1885   0.477E-02    0.734E-02
RMM:   8    -0.866660044194E+03   -0.22245E-03   -0.32657E-04  1510   0.373E-02    0.149E-01
RMM:   9    -0.866659993008E+03    0.51186E-04   -0.27655E-04  1476   0.347E-02
  62 F= -.88752210E+03 E0= -.88751902E+03  d E =-.754403E-02  mag=    -0.0000
       N       E                     dE             d eps       ncg     rms          rms(c)
DAV:   1    -0.866659014195E+03    0.10300E-02   -0.15127E+00  2576   0.112E+00    0.284E-01
RMM:   2    -0.866662325583E+03   -0.33114E-02   -0.34830E-02  2872   0.261E-01    0.256E-01
RMM:   3    -0.866662717887E+03   -0.39230E-03   -0.45866E-03  2871   0.785E-02    0.333E-01
RMM:   4    -0.866662624357E+03    0.93530E-04   -0.10964E-03  1735   0.435E-02    0.131E-01
RMM:   5    -0.866662948447E+03   -0.32409E-03   -0.40782E-04  1531   0.414E-02    0.819E-02
RMM:   6    -0.866663106181E+03   -0.15773E-03   -0.34463E-04  1454   0.361E-02    0.712E-02
RMM:   7    -0.866663145323E+03   -0.39142E-04   -0.14656E-04  1411   0.337E-02
  63 F= -.88752468E+03 E0= -.88752144E+03  d E =-.257133E-02  mag=    -0.0000
       N       E                     dE             d eps       ncg     rms          rms(c)
DAV:   1    -0.866633668465E+03    0.29438E-01   -0.13632E+01  2336   0.335E+00    0.905E-01
RMM:   2    -0.866667062064E+03   -0.33394E-01   -0.31881E-01  2953   0.757E-01    0.118E+00
RMM:   3    -0.866665539056E+03    0.15230E-02   -0.39022E-02  3122   0.234E-01    0.752E-01
RMM:   4    -0.866667278873E+03   -0.17398E-02   -0.89691E-03  3216   0.100E-01    0.389E-01
RMM:   5    -0.866668695931E+03   -0.14171E-02   -0.41814E-03  3150   0.735E-02    0.241E-01
RMM:   6    -0.866669519627E+03   -0.82370E-03   -0.18460E-03  2457   0.536E-02    0.264E-01
RMM:   7    -0.866669552620E+03   -0.32992E-04   -0.81355E-04  1828   0.433E-02
  64 F= -.88752935E+03 E0= -.88752612E+03  d E =-.724569E-02  mag=    -0.0000
       N       E                     dE             d eps       ncg     rms          rms(c)
DAV:   1    -0.866515703474E+03    0.15382E+00   -0.54894E+01  2336   0.668E+00    0.200E+00
[...]
RMM:   8    -0.866671528520E+03    0.14136E-02   -0.28106E-03  2739   0.753E-02    0.120E-01
RMM:   9    -0.866672220339E+03   -0.69182E-03   -0.79061E-04  1879   0.404E-02    0.992E-02
RMM:  10    -0.866672362308E+03   -0.14197E-03   -0.32863E-04  1525   0.376E-02    0.834E-02
RMM:  11    -0.866672423220E+03   -0.60911E-04   -0.30151E-04  1474   0.342E-02
  65 F= -.88752880E+03 E0= -.88752537E+03  d E =-.669940E-02  mag=    -0.0000
       N       E                     dE             d eps       ncg     rms          rms(c)
DAV:   1    -0.866601753123E+03    0.70609E-01   -0.25934E+01  2336   0.463E+00    0.130E+00
RMM:   2    -0.866683670037E+03   -0.81917E-01   -0.68951E-01  2975   0.105E+00    0.378E+00
RMM:   3    -0.866653573783E+03    0.30096E-01   -0.73338E-02  3113   0.346E-01    0.904E-01
RMM:   4    -0.866668908630E+03   -0.15335E-01   -0.17058E-02  2902   0.153E-01    0.767E-01
RMM:   5    -0.866669800331E+03   -0.89170E-03   -0.64520E-03  2948   0.910E-02    0.449E-01
RMM:   6    -0.866672235449E+03   -0.24351E-02   -0.41657E-03  2704   0.775E-02    0.611E-01
RMM:   7    -0.866671446195E+03    0.78925E-03   -0.18825E-03  2098   0.528E-02    0.243E-01
RMM:   8    -0.866672247254E+03   -0.80106E-03   -0.54871E-04  1643   0.461E-02    0.184E-01
RMM:   9    -0.866672140598E+03    0.10666E-03   -0.20811E-04  1442   0.320E-02    0.441E-02
RMM:  10    -0.866672229643E+03   -0.89045E-04   -0.12447E-04  1414   0.275E-02
  66 F= -.88753097E+03 E0= -.88752748E+03  d E =-.886136E-02  mag=     0.0001
       N       E                     dE             d eps       ncg     rms          rms(c)
DAV:   1    -0.866656836513E+03    0.15304E-01   -0.65139E+00  2352   0.231E+00    0.656E-01
RMM:   2    -0.866673975396E+03   -0.17139E-01   -0.15120E-01  2921   0.520E-01    0.113E+00
RMM:   3    -0.866670521834E+03    0.34536E-02   -0.18623E-02  2996   0.165E-01    0.418E-01
RMM:   4    -0.866672311750E+03   -0.17899E-02   -0.38114E-03  2223   0.717E-02    0.251E-01
RMM:   5    -0.866672952387E+03   -0.64064E-03   -0.17936E-03  2108   0.603E-02    0.280E-01
RMM:   6    -0.866673101481E+03   -0.14909E-03   -0.92430E-04  1826   0.463E-02    0.127E-01
RMM:   7    -0.866673289709E+03   -0.18823E-03   -0.45164E-04  1517   0.406E-02    0.497E-02
RMM:   8    -0.866673336563E+03   -0.46855E-04   -0.13375E-04  1412   0.272E-02
  67 F= -.88753089E+03 E0= -.88752719E+03  d E =-.878637E-02  mag=    -0.0000
       N       E                     dE             d eps       ncg     rms          rms(c)
DAV:   1    -0.866665192524E+03    0.80972E-02   -0.50904E+00  2368   0.195E+00    0.791E-01
RMM:   2    -0.866686967216E+03   -0.21775E-01   -0.14319E-01  3023   0.462E-01    0.175E+00
RMM:   3    -0.866673543502E+03    0.13424E-01   -0.16690E-02  3015   0.165E-01    0.361E-01
RMM:   4    -0.866677782918E+03   -0.42394E-02   -0.86740E-03  2667   0.873E-02    0.740E-01
RMM:   5    -0.866677140482E+03    0.64244E-03   -0.21638E-03  2219   0.732E-02    0.489E-01
RMM:   6    -0.866677678329E+03   -0.53785E-03   -0.14273E-03  1888   0.572E-02    0.233E-01
RMM:   7    -0.866677976341E+03   -0.29801E-03   -0.40012E-04  1490   0.391E-02    0.262E-01
RMM:   8    -0.866677930058E+03    0.46283E-04   -0.62272E-04  1533   0.373E-02
  68 F= -.88753458E+03 E0= -.88753055E+03  d E =-.368786E-02  mag=    -0.0000
       N       E                     dE             d eps       ncg     rms          rms(c)
DAV:   1    -0.866558857157E+03    0.11912E+00   -0.46301E+01  2336   0.588E+00    0.290E+00
RMM:   2    -0.866777494225E+03   -0.21864E+00   -0.15418E+00  3091   0.149E+00    0.394E+00
RMM:   3    -0.866680842196E+03    0.96652E-01   -0.15712E-01  3012   0.512E-01    0.228E+00
RMM:   4    -0.866699423717E+03   -0.18582E-01   -0.18142E-01  3177   0.364E-01    0.441E+00
RMM:   5    -0.866665317681E+03    0.34106E-01   -0.25087E-02  2828   0.267E-01    0.121E+00
RMM:   6    -0.866680783059E+03   -0.15465E-01   -0.11558E-02  2985   0.139E-01    0.719E-01
RMM:   7    -0.866683074916E+03   -0.22919E-02   -0.76601E-03  3139   0.100E-01    0.410E-01
RMM:   8    -0.866686762616E+03   -0.36877E-02   -0.85277E-03  2996   0.893E-02    0.136E+00
RMM:   9    -0.866681829440E+03    0.49332E-02   -0.21218E-03  2262   0.767E-02    0.125E-01
RMM:  10    -0.866684797696E+03   -0.29683E-02   -0.16261E-03  2085   0.632E-02    0.373E-01
RMM:  11    -0.866684541448E+03    0.25625E-03   -0.43142E-04  1611   0.443E-02    0.970E-02
RMM:  12    -0.866684740653E+03   -0.19921E-03   -0.25787E-04  1446   0.331E-02    0.713E-02
RMM:  13    -0.866684817981E+03   -0.77327E-04   -0.17133E-04  1417   0.265E-02
  69 F= -.88753879E+03 E0= -.88753441E+03  d E =-.790111E-02  mag=     0.0000
       N       E                     dE             d eps       ncg     rms          rms(c)
DAV:   1    -0.866673740407E+03    0.11000E-01   -0.43704E+00  2416   0.185E+00    0.727E-01
RMM:   2    -0.866699818746E+03   -0.26078E-01   -0.12791E-01  3025   0.427E-01    0.359E+00
RMM:   3    -0.866669780628E+03    0.30038E-01   -0.17981E-02  2851   0.189E-01    0.379E-01
RMM:   4    -0.866683192036E+03   -0.13411E-01   -0.59130E-03  2234   0.962E-02    0.488E-01
RMM:   5    -0.866683680368E+03   -0.48833E-03   -0.13386E-03  1925   0.659E-02    0.329E-01
RMM:   6    -0.866684571060E+03   -0.89069E-03   -0.10031E-03  1820   0.451E-02    0.528E-01
RMM:   7    -0.866683661664E+03    0.90940E-03   -0.54641E-04  1495   0.403E-02    0.597E-02
RMM:   8    -0.866684336338E+03   -0.67467E-03   -0.24790E-04  1409   0.281E-02    0.361E-02
RMM:   9    -0.866684419202E+03   -0.82864E-04   -0.93802E-05  1334   0.240E-02
  70 F= -.88753921E+03 E0= -.88753516E+03  d E =-.832273E-02  mag=    -0.0000
       N       E                     dE             d eps       ncg     rms          rms(c)
DAV:   1    -0.866677507545E+03    0.68288E-02   -0.46547E+00  2336   0.202E+00    0.503E-01
RMM:   2    -0.866688795329E+03   -0.11288E-01   -0.11675E-01  2818   0.514E-01    0.656E-01
RMM:   3    -0.866689366199E+03   -0.57087E-03   -0.16489E-02  3156   0.153E-01    0.554E-01
RMM:   4    -0.866689756656E+03   -0.39046E-03   -0.38051E-03  2645   0.710E-02    0.266E-01
RMM:   5    -0.866690613785E+03   -0.85713E-03   -0.23595E-03  2719   0.612E-02    0.342E-01
RMM:   6    -0.866690568721E+03    0.45064E-04   -0.95208E-04  1803   0.450E-02
  71 F= -.88754515E+03 E0= -.88754123E+03  d E =-.593317E-02  mag=    -0.0000
       N       E                     dE             d eps       ncg     rms          rms(c)
DAV:   1    -0.866674060170E+03    0.16554E-01   -0.65511E+00  2336   0.238E+00    0.604E-01
RMM:   2    -0.866689660189E+03   -0.15600E-01   -0.16857E-01  2896   0.616E-01    0.541E-01
RMM:   3    -0.866692516650E+03   -0.28565E-02   -0.25642E-02  3368   0.182E-01    0.852E-01
RMM:   4    -0.866691679428E+03    0.83722E-03   -0.70963E-03  3202   0.862E-02    0.329E-01
RMM:   5    -0.866693273930E+03   -0.15945E-02   -0.42639E-03  3225   0.758E-02    0.343E-01
RMM:   6    -0.866693617893E+03   -0.34396E-03   -0.19358E-03  2512   0.525E-02    0.231E-01
RMM:   7    -0.866693767570E+03   -0.14968E-03   -0.52324E-04  1684   0.404E-02    0.977E-02
RMM:   8    -0.866693848031E+03   -0.80462E-04   -0.34919E-04  1532   0.350E-02
  72 F= -.88754818E+03 E0= -.88754395E+03  d E =-.896424E-02  mag=    -0.0000
       N       E                     dE             d eps       ncg     rms          rms(c)
DAV:   1    -0.866685207442E+03    0.85601E-02   -0.45613E+00  2336   0.197E+00    0.758E-01
RMM:   2    -0.866707169005E+03   -0.21962E-01   -0.13656E-01  2999   0.533E-01    0.203E+00
RMM:   3    -0.866692024185E+03    0.15145E-01   -0.20063E-02  3184   0.182E-01    0.361E-01
RMM:   4    -0.866697006027E+03   -0.49818E-02   -0.70249E-03  3133   0.854E-02    0.491E-01
RMM:   5    -0.866698939301E+03   -0.19333E-02   -0.34486E-03  2829   0.683E-02    0.931E-01
RMM:   6    -0.866696905483E+03    0.20338E-02   -0.24508E-03  2503   0.726E-02    0.128E-01
RMM:   7    -0.866697925223E+03   -0.10197E-02   -0.76669E-04  1749   0.445E-02    0.661E-02
RMM:   8    -0.866698094194E+03   -0.16897E-03   -0.39055E-04  1493   0.375E-02    0.102E-01
RMM:   9    -0.866698123926E+03   -0.29733E-04   -0.17342E-04  1430   0.306E-02
  73 F= -.88755241E+03 E0= -.88754798E+03  d E =-.422948E-02  mag=    -0.0000
       N       E                     dE             d eps       ncg     rms          rms(c)
DAV:   1    -0.866697588018E+03    0.50618E-03   -0.43910E-01  2616   0.615E-01    0.187E-01
RMM:   2    -0.866699196607E+03   -0.16086E-02   -0.12507E-02  2905   0.164E-01    0.586E-01
RMM:   3    -0.866698133557E+03    0.10631E-02   -0.16183E-03  2187   0.561E-02    0.114E-01
RMM:   4    -0.866698724602E+03   -0.59105E-03   -0.54172E-04  1617   0.418E-02    0.989E-02
RMM:   5    -0.866698949887E+03   -0.22528E-03   -0.30827E-04  1454   0.365E-02    0.235E-01
RMM:   6    -0.866698825477E+03    0.12441E-03   -0.33703E-04  1445   0.365E-02    0.637E-02
RMM:   7    -0.866698953730E+03   -0.12825E-03   -0.15612E-04  1417   0.294E-02    0.348E-02
RMM:   8    -0.866699007664E+03   -0.53934E-04   -0.11794E-04  1398   0.270E-02
  74 F= -.88755328E+03 E0= -.88754881E+03  d E =-.510030E-02  mag=    -0.0000
       N       E                     dE             d eps       ncg     rms          rms(c)
DAV:   1    -0.866694807252E+03    0.41465E-02   -0.17538E+00  2368   0.123E+00    0.497E-01
RMM:   2    -0.866705126461E+03   -0.10319E-01   -0.55366E-02  2998   0.335E-01    0.166E+00
RMM:   3    -0.866695749936E+03    0.93765E-02   -0.87684E-03  3166   0.123E-01    0.227E-01
RMM:   4    -0.866699115382E+03   -0.33654E-02   -0.26739E-03  2444   0.619E-02    0.291E-01
RMM:   5    -0.866700178379E+03   -0.10630E-02   -0.13516E-03  2111   0.554E-02    0.666E-01
RMM:   6    -0.866699051288E+03    0.11271E-02   -0.94784E-04  1929   0.513E-02    0.119E-01
RMM:   7    -0.866699599342E+03   -0.54805E-03   -0.40586E-04  1504   0.389E-02    0.476E-02
RMM:   8    -0.866699754620E+03   -0.15528E-03   -0.19303E-04  1439   0.322E-02    0.606E-02
RMM:   9    -0.866699789122E+03   -0.34502E-04   -0.11946E-04  1402   0.279E-02
  75 F= -.88755404E+03 E0= -.88754942E+03  d E =-.585811E-02  mag=    -0.0000
       N       E                     dE             d eps       ncg     rms          rms(c)
DAV:   1    -0.866696198432E+03    0.35562E-02   -0.25691E+00  2352   0.146E+00    0.487E-01
RMM:   2    -0.866705881136E+03   -0.96827E-02   -0.67350E-02  2953   0.375E-01    0.143E+00
RMM:   3    -0.866699932976E+03    0.59482E-02   -0.10517E-02  3069   0.124E-01    0.271E-01
RMM:   4    -0.866702627539E+03   -0.26946E-02   -0.25622E-03  2279   0.638E-02    0.220E-01
RMM:   5    -0.866703338569E+03   -0.71103E-03   -0.11284E-03  1980   0.544E-02    0.497E-01
RMM:   6    -0.866702852189E+03    0.48638E-03   -0.90996E-04  1846   0.470E-02    0.995E-02
RMM:   7    -0.866703300842E+03   -0.44865E-03   -0.27987E-04  1472   0.399E-02    0.699E-02
RMM:   8    -0.866703317876E+03   -0.17034E-04   -0.18645E-04  1426   0.279E-02
  76 F= -.88755712E+03 E0= -.88755243E+03  d E =-.308469E-02  mag=    -0.0000
       N       E                     dE             d eps       ncg     rms          rms(c)
DAV:   1    -0.866693967434E+03    0.93334E-02   -0.42212E+00  2336   0.187E+00    0.708E-01
RMM:   2    -0.866713928588E+03   -0.19961E-01   -0.11855E-01  3019   0.491E-01    0.209E+00
RMM:   3    -0.866699262387E+03    0.14666E-01   -0.19014E-02  3172   0.165E-01    0.341E-01
RMM:   4    -0.866704576625E+03   -0.53142E-02   -0.58778E-03  2919   0.859E-02    0.373E-01
RMM:   5    -0.866705988236E+03   -0.14116E-02   -0.23211E-03  2527   0.628E-02    0.773E-01
RMM:   6    -0.866704885808E+03    0.11024E-02   -0.21187E-03  2293   0.632E-02    0.255E-01
RMM:   7    -0.866705636103E+03   -0.75029E-03   -0.55776E-04  1649   0.459E-02    0.147E-01
RMM:   8    -0.866705656044E+03   -0.19941E-04   -0.32773E-04  1471   0.347E-02
  77 F= -.88755890E+03 E0= -.88755417E+03  d E =-.486045E-02  mag=    -0.0000
       N       E                     dE             d eps       ncg     rms          rms(c)
DAV:   1    -0.866700252745E+03    0.53834E-02   -0.31697E+00  2352   0.163E+00    0.526E-01
RMM:   2    -0.866711984057E+03   -0.11731E-01   -0.83384E-02  2961   0.415E-01    0.156E+00
RMM:   3    -0.866704960621E+03    0.70234E-02   -0.12906E-02  3058   0.133E-01    0.319E-01
RMM:   4    -0.866708208092E+03   -0.32475E-02   -0.27829E-03  2430   0.709E-02    0.262E-01
RMM:   5    -0.866708977670E+03   -0.76958E-03   -0.12890E-03  2148   0.528E-02    0.524E-01
RMM:   6    -0.866708581896E+03    0.39577E-03   -0.13520E-03  1946   0.520E-02    0.232E-01
RMM:   7    -0.866708967120E+03   -0.38522E-03   -0.29540E-04  1494   0.414E-02    0.608E-02
RMM:   8    -0.866709036186E+03   -0.69066E-04   -0.18972E-04  1431   0.294E-02
  78 F= -.88756214E+03 E0= -.88755734E+03  d E =-.324496E-02  mag=    -0.0000
       N       E                     dE             d eps       ncg     rms          rms(c)
DAV:   1    -0.866702274922E+03    0.66922E-02   -0.29737E+00  2352   0.158E+00    0.519E-01
RMM:   2    -0.866713929434E+03   -0.11655E-01   -0.79860E-02  2997   0.405E-01    0.160E+00
RMM:   3    -0.866706375899E+03    0.75535E-02   -0.12732E-02  3135   0.133E-01    0.305E-01
RMM:   4    -0.866709789328E+03   -0.34134E-02   -0.29272E-03  2592   0.706E-02    0.277E-01
RMM:   5    -0.866710619823E+03   -0.83050E-03   -0.14471E-03  2225   0.537E-02    0.566E-01
RMM:   6    -0.866710066262E+03    0.55356E-03   -0.14186E-03  2024   0.536E-02    0.193E-01
RMM:   7    -0.866710561157E+03   -0.49490E-03   -0.32597E-04  1513   0.412E-02    0.489E-02
RMM:   8    -0.866710616544E+03   -0.55387E-04   -0.19758E-04  1438   0.303E-02
  79 F= -.88756360E+03 E0= -.88755873E+03  d E =-.469936E-02  mag=    -0.0000
       N       E                     dE             d eps       ncg     rms          rms(c)
DAV:   1    -0.866702493921E+03    0.80672E-02   -0.40693E+00  2336   0.184E+00    0.471E-01
RMM:   2    -0.866713199968E+03   -0.10706E-01   -0.10432E-01  2938   0.448E-01    0.108E+00
RMM:   3    -0.866710965427E+03    0.22345E-02   -0.14198E-02  3196   0.132E-01    0.383E-01
RMM:   4    -0.866712974632E+03   -0.20092E-02   -0.32946E-03  2605   0.697E-02    0.229E-01
RMM:   5    -0.866713395532E+03   -0.42090E-03   -0.13208E-03  2188   0.484E-02    0.216E-01
RMM:   6    -0.866713775645E+03   -0.38011E-03   -0.97745E-04  1923   0.497E-02    0.684E-02
RMM:   7    -0.866713907899E+03   -0.13225E-03   -0.25789E-04  1469   0.341E-02    0.515E-02
RMM:   8    -0.866713945569E+03   -0.37670E-04   -0.19064E-04  1431   0.303E-02
  80 F= -.88756645E+03 E0= -.88756159E+03  d E =-.285240E-02  mag=    -0.0000
       N       E                     dE             d eps       ncg     rms          rms(c)
DAV:   1    -0.866709103274E+03    0.48046E-02   -0.21363E+00  2368   0.133E+00    0.354E-01
RMM:   2    -0.866715149019E+03   -0.60457E-02   -0.56516E-02  2969   0.327E-01    0.943E-01
RMM:   3    -0.866713074972E+03    0.20740E-02   -0.71488E-03  3195   0.986E-02    0.258E-01
RMM:   4    -0.866714602413E+03   -0.15274E-02   -0.19325E-03  2219   0.561E-02    0.169E-01
RMM:   5    -0.866714920846E+03   -0.31843E-03   -0.75356E-04  1804   0.460E-02    0.174E-01
RMM:   6    -0.866715148329E+03   -0.22748E-03   -0.60911E-04  1625   0.419E-02    0.494E-02
RMM:   7    -0.866715247626E+03   -0.99296E-04   -0.19517E-04  1427   0.371E-02
  81 F= -.88756741E+03 E0= -.88756258E+03  d E =-.381308E-02  mag=    -0.0000
       N       E                     dE             d eps       ncg     rms          rms(c)
DAV:   1    -0.866690940699E+03    0.24208E-01   -0.85261E+00  2336   0.266E+00    0.680E-01
RMM:   2    -0.866713531703E+03   -0.22591E-01   -0.22546E-01  2978   0.649E-01    0.142E+00
RMM:   3    -0.866710145814E+03    0.33859E-02   -0.26863E-02  3274   0.187E-01    0.602E-01
RMM:   4    -0.866713392982E+03   -0.32472E-02   -0.73540E-03  3184   0.972E-02    0.339E-01
RMM:   5    -0.866714279974E+03   -0.88699E-03   -0.33656E-03  2993   0.615E-02    0.313E-01
RMM:   6    -0.866714889579E+03   -0.60960E-03   -0.19353E-03  2393   0.549E-02    0.965E-02
RMM:   7    -0.866715154514E+03   -0.26494E-03   -0.54013E-04  1628   0.374E-02    0.664E-02
RMM:   8    -0.866715201019E+03   -0.46505E-04   -0.34937E-04  1506   0.372E-02
  82 F= -.88756669E+03 E0= -.88756187E+03  d E =-.309389E-02  mag=    -0.0000
       N       E                     dE             d eps       ncg     rms          rms(c)
DAV:   1    -0.866701126744E+03    0.14028E-01   -0.54706E+00  2336   0.213E+00    0.529E-01
RMM:   2    -0.866714062832E+03   -0.12936E-01   -0.13224E-01  2941   0.506E-01    0.888E-01
RMM:   3    -0.866713660107E+03    0.40273E-03   -0.15807E-02  3051   0.143E-01    0.595E-01
RMM:   4    -0.866714416326E+03   -0.75622E-03   -0.39563E-03  2242   0.729E-02    0.282E-01
RMM:   5    -0.866715342433E+03   -0.92611E-03   -0.21643E-03  2358   0.622E-02    0.144E-01
RMM:   6    -0.866715649183E+03   -0.30675E-03   -0.68611E-04  1548   0.422E-02    0.171E-01
RMM:   7    -0.866715634445E+03    0.14738E-04   -0.22376E-04  1414   0.375E-02
  83 F= -.88756766E+03 E0= -.88756286E+03  d E =-.406447E-02  mag=    -0.0000
       N       E                     dE             d eps       ncg     rms          rms(c)
DAV:   1    -0.866707760014E+03    0.78892E-02   -0.36614E+00  2336   0.178E+00    0.658E-01
RMM:   2    -0.866726473714E+03   -0.18714E-01   -0.11003E-01  2978   0.480E-01    0.211E+00
RMM:   3    -0.866712022265E+03    0.14451E-01   -0.16457E-02  3071   0.159E-01    0.276E-01
RMM:   4    -0.866717300812E+03   -0.52785E-02   -0.46845E-03  2718   0.847E-02    0.387E-01
RMM:   5    -0.866718000212E+03   -0.69940E-03   -0.14297E-03  2126   0.546E-02    0.628E-01
RMM:   6    -0.866717495411E+03    0.50480E-03   -0.17180E-03  2034   0.603E-02    0.267E-01
RMM:   7    -0.866717978104E+03   -0.48269E-03   -0.42773E-04  1533   0.423E-02    0.951E-02
RMM:   8    -0.866718057859E+03   -0.79755E-04   -0.22788E-04  1433   0.321E-02
  84 F= -.88756971E+03 E0= -.88756480E+03  d E =-.205491E-02  mag=    -0.0000
       N       E                     dE             d eps       ncg     rms          rms(c)
DAV:   1    -0.866715627223E+03    0.23509E-02   -0.10442E+00  2368   0.953E-01    0.377E-01
RMM:   2    -0.866722242496E+03   -0.66153E-02   -0.33856E-02  2978   0.265E-01    0.151E+00
RMM:   3    -0.866715348013E+03    0.68945E-02   -0.58276E-03  3093   0.979E-02    0.167E-01
RMM:   4    -0.866718294417E+03   -0.29464E-02   -0.19409E-03  2191   0.568E-02    0.233E-01
RMM:   5    -0.866718666759E+03   -0.37234E-03   -0.47625E-04  1573   0.464E-02    0.345E-01
RMM:   6    -0.866718558109E+03    0.10865E-03   -0.52023E-04  1515   0.391E-02    0.632E-02
RMM:   7    -0.866718822585E+03   -0.26448E-03   -0.19107E-04  1411   0.366E-02    0.498E-02
RMM:   8    -0.866718844426E+03   -0.21842E-04   -0.17218E-04  1396   0.262E-02
  85 F= -.88757031E+03 E0= -.88756530E+03  d E =-.264713E-02  mag=    -0.0000
       N       E                     dE             d eps       ncg     rms          rms(c)
DAV:   1    -0.866714002371E+03    0.48202E-02   -0.24194E+00  2336   0.152E+00    0.445E-01
RMM:   2    -0.866722450773E+03   -0.84484E-02   -0.66287E-02  2916   0.392E-01    0.136E+00
RMM:   3    -0.866717889007E+03    0.45618E-02   -0.11150E-02  3195   0.124E-01    0.313E-01
RMM:   4    -0.866720289359E+03   -0.24004E-02   -0.22570E-03  2453   0.640E-02    0.209E-01
RMM:   5    -0.866721104445E+03   -0.81509E-03   -0.14634E-03  2253   0.544E-02    0.515E-01
RMM:   6    -0.866720535151E+03    0.56929E-03   -0.10696E-03  1929   0.485E-02    0.170E-01
RMM:   7    -0.866721011345E+03   -0.47619E-03   -0.31657E-04  1502   0.418E-02    0.423E-02
RMM:   8    -0.866721041903E+03   -0.30558E-04   -0.14178E-04  1413   0.291E-02
  86 F= -.88757240E+03 E0= -.88756725E+03  d E =-.208980E-02  mag=     0.0000
