       N       E                     dE             d eps       ncg     rms          rms(c)
DAV:   1     0.159522248751E+05    0.15952E+05   -0.34513E+05  2368   0.150E+03
DAV:   2     0.575103851097E+04   -0.10201E+05   -0.89695E+04  2528   0.399E+02
DAV:   3     0.496577732817E+03   -0.52545E+04   -0.50083E+04  3024   0.264E+02
DAV:   4    -0.966684801205E+03   -0.14633E+04   -0.13485E+04  3392   0.137E+02
DAV:   5    -0.110821252561E+04   -0.14153E+03   -0.14035E+03  3936   0.546E+01    0.158E+02
RMM:   6    -0.909067863301E+03    0.19914E+03   -0.56360E+02  3258   0.293E+01    0.980E+01
RMM:   7    -0.985893432200E+03   -0.76826E+02   -0.11860E+03  3438   0.299E+01    0.143E+02
RMM:   8    -0.101653481967E+04   -0.30641E+02   -0.37359E+02  3126   0.278E+01    0.185E+02
RMM:   9    -0.967025667591E+03    0.49509E+02   -0.13332E+02  3255   0.105E+01    0.158E+02
RMM:  10    -0.101389257616E+04   -0.46867E+02   -0.20334E+02  3472   0.146E+01    0.213E+02
RMM:  11    -0.985574694994E+03    0.28318E+02   -0.13161E+02  3432   0.122E+01    0.196E+02
RMM:  12    -0.962568003953E+03    0.23007E+02   -0.71457E+01  3352   0.109E+01    0.172E+02
RMM:  13    -0.960222499174E+03    0.23455E+01   -0.54153E+01  3447   0.878E+00    0.168E+02
RMM:  14    -0.985015789646E+03   -0.24793E+02   -0.47878E+01  3389   0.915E+00    0.189E+02
RMM:  15    -0.952380365458E+03    0.32635E+02   -0.14431E+01  3355   0.545E+00    0.142E+02
RMM:  16    -0.966379207745E+03   -0.13999E+02   -0.11069E+01  3217   0.507E+00    0.164E+02
RMM:  17    -0.955429773386E+03    0.10949E+02   -0.29184E+00  3151   0.303E+00    0.144E+02
RMM:  18    -0.956381129180E+03   -0.95136E+00   -0.19682E+00  3844   0.149E+00    0.146E+02
RMM:  19    -0.957010283203E+03   -0.62915E+00   -0.10538E+00  3722   0.131E+00    0.154E+02
RMM:  20    -0.951461831588E+03    0.55485E+01   -0.18091E+00  3316   0.171E+00    0.146E+02
RMM:  21    -0.959552543405E+03   -0.80907E+01   -0.55889E+00  3288   0.325E+00    0.162E+02
RMM:  22    -0.949564800015E+03    0.99877E+01   -0.36207E+00  3317   0.271E+00    0.136E+02
RMM:  23    -0.965677597149E+03   -0.16113E+02   -0.90640E+00  3349   0.427E+00    0.147E+02
RMM:  24    -0.962820386084E+03    0.28572E+01   -0.47464E+00  3299   0.374E+00    0.150E+02
RMM:  25    -0.957136073006E+03    0.56843E+01   -0.15874E+00  3324   0.208E+00    0.137E+02
RMM:  26    -0.979979935527E+03   -0.22844E+02   -0.63706E+00  3372   0.352E+00    0.154E+02
RMM:  27    -0.982094626903E+03   -0.21147E+01   -0.33633E+00  3193   0.372E+00    0.151E+02
RMM:  28    -0.986116482668E+03   -0.40219E+01   -0.77923E+00  3464   0.384E+00    0.152E+02
RMM:  29    -0.100806837654E+04   -0.21952E+02   -0.57143E+00  3157   0.489E+00    0.162E+02
RMM:  30    -0.102355244958E+04   -0.15484E+02   -0.73797E+00  3605   0.362E+00    0.173E+02
RMM:  31    -0.103887377399E+04   -0.15321E+02   -0.33415E+00  3158   0.434E+00    0.180E+02
RMM:  32    -0.103119708243E+04    0.76767E+01   -0.16501E+00  3745   0.160E+00    0.179E+02
RMM:  33    -0.101537132470E+04    0.15826E+02   -0.14235E+00  3368   0.224E+00    0.172E+02
RMM:  34    -0.103004781634E+04   -0.14676E+02   -0.67082E-01  3586   0.119E+00    0.175E+02
RMM:  35    -0.101705110321E+04    0.12997E+02   -0.12536E+00  3635   0.167E+00    0.171E+02
RMM:  36    -0.101834374900E+04   -0.12926E+01   -0.11588E+00  3596   0.153E+00    0.173E+02
RMM:  37    -0.101488979543E+04    0.34540E+01   -0.15284E+00  3535   0.196E+00    0.171E+02
RMM:  38    -0.101766281316E+04   -0.27730E+01   -0.21612E+00  3601   0.223E+00    0.170E+02
RMM:  39    -0.102871945735E+04   -0.11057E+02   -0.22372E+00  3473   0.271E+00    0.175E+02
RMM:  40    -0.102364164412E+04    0.50778E+01   -0.77238E-01  3456   0.155E+00    0.173E+02
RMM:  41    -0.102484856692E+04   -0.12069E+01   -0.33873E-01  3382   0.127E+00    0.174E+02
RMM:  42    -0.102682193833E+04   -0.19734E+01   -0.12124E-01  3587   0.620E-01    0.174E+02
RMM:  43    -0.102811601341E+04   -0.12941E+01   -0.23451E-01  3818   0.637E-01    0.174E+02
RMM:  44    -0.102778513694E+04    0.33088E+00   -0.52938E-02  3495   0.474E-01    0.175E+02
RMM:  45    -0.102957710502E+04   -0.17920E+01   -0.11495E-01  3787   0.435E-01    0.175E+02
RMM:  46    -0.103098078525E+04   -0.14037E+01   -0.44226E-02  3450   0.450E-01    0.176E+02
RMM:  47    -0.103333891844E+04   -0.23581E+01   -0.51222E-01  3704   0.850E-01    0.175E+02
RMM:  48    -0.103416399514E+04   -0.82508E+00   -0.87169E-01  3476   0.159E+00    0.174E+02
RMM:  49    -0.103593783039E+04   -0.17738E+01   -0.59431E-01  3591   0.140E+00    0.175E+02
RMM:  50    -0.103427898207E+04    0.16588E+01   -0.39974E-01  3449   0.127E+00    0.175E+02
RMM:  51    -0.949739811411E+03    0.84539E+02   -0.40893E+02  3659   0.230E+01    0.200E+02
RMM:  52    -0.833013820365E+03    0.11673E+03   -0.11264E+02  3003   0.195E+01    0.986E+01
RMM:  53    -0.875181877311E+03   -0.42168E+02   -0.12838E+02  3238   0.161E+01    0.860E+01
RMM:  54    -0.873061616186E+03    0.21203E+01   -0.30893E+01  3167   0.912E+00    0.669E+01
RMM:  55    -0.885060836920E+03   -0.11999E+02   -0.24613E+01  3269   0.651E+00    0.573E+01
RMM:  56    -0.937712794472E+03   -0.52652E+02   -0.12648E+02  3320   0.127E+01    0.149E+02
RMM:  57    -0.924201239291E+03    0.13512E+02   -0.59991E+01  3534   0.702E+00    0.122E+02
RMM:  58    -0.928541033057E+03   -0.43398E+01   -0.59299E+01  3584   0.612E+00    0.130E+02
RMM:  59    -0.920440343981E+03    0.81007E+01   -0.46549E+01  3445   0.458E+00    0.119E+02
RMM:  60    -0.915119773028E+03    0.53206E+01   -0.27006E+01  3516   0.380E+00    0.119E+02
RMM:  61    -0.890422247150E+03    0.24698E+02   -0.62474E+01  3280   0.915E+00    0.676E+01
RMM:  62    -0.894543441611E+03   -0.41212E+01   -0.12880E+01  3195   0.506E+00    0.559E+01
RMM:  63    -0.915944881149E+03   -0.21401E+02   -0.27666E+01  3149   0.583E+00    0.106E+02
RMM:  64    -0.918154068006E+03   -0.22092E+01   -0.32287E+01  3168   0.625E+00    0.119E+02
RMM:  65    -0.902221006983E+03    0.15933E+02   -0.75376E+00  3256   0.338E+00    0.803E+01
RMM:  66    -0.934826724195E+03   -0.32606E+02   -0.15700E+01  3169   0.496E+00    0.133E+02
RMM:  67    -0.911394517336E+03    0.23432E+02   -0.64083E+00  3151   0.349E+00    0.103E+02
RMM:  68    -0.906460808714E+03    0.49337E+01   -0.23997E+00  3226   0.235E+00    0.871E+01
RMM:  69    -0.906691057145E+03   -0.23025E+00   -0.70554E-01  3233   0.115E+00    0.871E+01
RMM:  70    -0.906138403423E+03    0.55265E+00   -0.26775E-01  3257   0.632E-01    0.870E+01
RMM:  71    -0.899231660362E+03    0.69067E+01   -0.83990E+00  3236   0.336E+00    0.890E+01
RMM:  72    -0.898656947390E+03    0.57471E+00   -0.79354E+00  3101   0.384E+00    0.864E+01
RMM:  73    -0.894967038228E+03    0.36899E+01   -0.26904E+00  3199   0.256E+00    0.837E+01
RMM:  74    -0.893411871673E+03    0.15552E+01   -0.18810E+00  3229   0.216E+00    0.836E+01
RMM:  75    -0.896572767833E+03   -0.31609E+01   -0.13102E+00  3271   0.169E+00    0.844E+01
RMM:  76    -0.875469962038E+03    0.21103E+02   -0.36956E+01  3256   0.773E+00    0.603E+01
RMM:  77    -0.882340224360E+03   -0.68703E+01   -0.72786E+00  2950   0.532E+00    0.653E+01
RMM:  78    -0.876476896147E+03    0.58633E+01   -0.47681E+00  3260   0.309E+00    0.648E+01
RMM:  79    -0.869886260662E+03    0.65906E+01   -0.31416E+00  3214   0.273E+00    0.651E+01
RMM:  80    -0.860350883854E+03    0.95354E+01   -0.78497E+00  3285   0.380E+00    0.652E+01
RMM:  81    -0.852092710543E+03    0.82582E+01   -0.80332E+00  3273   0.446E+00    0.658E+01
RMM:  82    -0.854555970481E+03   -0.24633E+01   -0.29391E+00  3311   0.272E+00    0.686E+01
RMM:  83    -0.849141521063E+03    0.54144E+01   -0.18463E+00  3313   0.228E+00    0.656E+01
RMM:  84    -0.848597752799E+03    0.54377E+00   -0.12550E+00  3382   0.181E+00    0.658E+01
RMM:  85    -0.844778705355E+03    0.38190E+01   -0.14184E+00  3346   0.207E+00    0.668E+01
RMM:  86    -0.886641504529E+03   -0.41863E+02   -0.29408E+01  3150   0.900E+00    0.470E+01
RMM:  87    -0.884968606624E+03    0.16729E+01   -0.10202E+01  3158   0.489E+00    0.445E+01
RMM:  88    -0.887915999394E+03   -0.29474E+01   -0.67852E+00  3238   0.345E+00    0.456E+01
RMM:  89    -0.885837707619E+03    0.20783E+01   -0.32885E+00  3090   0.281E+00    0.402E+01
RMM:  90    -0.884176678680E+03    0.16610E+01   -0.52690E+00  3270   0.297E+00    0.397E+01
RMM:  91    -0.886311929380E+03   -0.21353E+01   -0.10157E+01  3238   0.434E+00    0.330E+01
RMM:  92    -0.886676952287E+03   -0.36502E+00   -0.37090E+00  3220   0.279E+00    0.298E+01
RMM:  93    -0.891832509746E+03   -0.51556E+01   -0.39785E+00  3275   0.242E+00    0.299E+01
RMM:  94    -0.892815415320E+03   -0.98291E+00   -0.22288E+00  3236   0.211E+00    0.284E+01
RMM:  95    -0.893084571336E+03   -0.26916E+00   -0.16687E+00  3259   0.176E+00    0.300E+01
RMM:  96    -0.889910241672E+03    0.31743E+01   -0.22100E+01  3256   0.559E+00    0.312E+01
RMM:  97    -0.887690338322E+03    0.22199E+01   -0.50166E+00  3063   0.366E+00    0.253E+01
RMM:  98    -0.888088468772E+03   -0.39813E+00   -0.22297E+00  3281   0.189E+00    0.234E+01
RMM:  99    -0.888857388787E+03   -0.76892E+00   -0.27928E+00  3213   0.226E+00    0.218E+01
RMM: 100    -0.889259121772E+03   -0.40173E+00   -0.18002E+00  3286   0.165E+00
   1 F= -.91025753E+03 E0= -.91024277E+03  d E =-.910258E+03  mag=     4.3063
       N       E                     dE             d eps       ncg     rms          rms(c)
DAV:   1    -0.888311611375E+03    0.54578E+00   -0.17661E+01  3376   0.950E+00    0.199E+01
RMM:   2    -0.100875612377E+04   -0.12044E+03   -0.78532E+01  3250   0.102E+01    0.218E+02
RMM:   3    -0.891258789415E+03    0.11750E+03   -0.10152E+01  2946   0.540E+00    0.217E+01
RMM:   4    -0.890899621107E+03    0.35917E+00   -0.71506E+00  3215   0.333E+00    0.150E+01
RMM:   5    -0.891130986235E+03   -0.23137E+00   -0.15227E+01  3223   0.467E+00    0.748E+00
RMM:   6    -0.891517588236E+03   -0.38660E+00   -0.12692E+00  3298   0.102E+00    0.636E+00
RMM:   7    -0.892274086114E+03   -0.75650E+00   -0.11456E+00  3247   0.125E+00    0.753E+00
RMM:   8    -0.892397998772E+03   -0.12391E+00   -0.58702E-01  3285   0.778E-01    0.473E+00
RMM:   9    -0.892557486906E+03   -0.15949E+00   -0.28556E-01  3028   0.747E-01    0.341E+00
RMM:  10    -0.892647068508E+03   -0.89582E-01   -0.19154E-01  3281   0.438E-01    0.242E+00
RMM:  11    -0.892644227817E+03    0.28407E-02   -0.13988E-01  3182   0.441E-01    0.188E+00
RMM:  12    -0.892626384140E+03    0.17844E-01   -0.67541E-02  3237   0.210E-01    0.161E+00
RMM:  13    -0.892610199424E+03    0.16185E-01   -0.17502E-02  3145   0.134E-01    0.147E+00
RMM:  14    -0.892599876571E+03    0.10323E-01   -0.76916E-03  3110   0.107E-01    0.137E+00
RMM:  15    -0.892593614526E+03    0.62620E-02   -0.72382E-03  3109   0.952E-02    0.124E+00
RMM:  16    -0.892580020965E+03    0.13594E-01   -0.91109E-03  3077   0.108E-01    0.112E+00
RMM:  17    -0.892570779074E+03    0.92419E-02   -0.85648E-03  2921   0.909E-02    0.103E+00
RMM:  18    -0.892569421199E+03    0.13579E-02   -0.21045E-03  2514   0.540E-02    0.984E-01
RMM:  19    -0.892567781558E+03    0.16396E-02   -0.61213E-04  1859   0.391E-02    0.962E-01
RMM:  20    -0.892561691120E+03    0.60904E-02   -0.17942E-03  2458   0.493E-02    0.925E-01
RMM:  21    -0.892557500168E+03    0.41910E-02   -0.85759E-04  2170   0.420E-02    0.905E-01
RMM:  22    -0.892555249579E+03    0.22506E-02   -0.34576E-04  1694   0.338E-02    0.896E-01
RMM:  23    -0.892555354004E+03   -0.10442E-03   -0.14408E-04  1478   0.316E-02    0.896E-01
RMM:  24    -0.892555517313E+03   -0.16331E-03   -0.91049E-05  1478   0.230E-02    0.896E-01
RMM:  25    -0.892553978374E+03    0.15389E-02   -0.13602E-04  1477   0.246E-02    0.895E-01
RMM:  26    -0.892553426454E+03    0.55192E-03   -0.97848E-05  1478   0.247E-02    0.892E-01
RMM:  27    -0.892545064872E+03    0.83616E-02   -0.19493E-03  2447   0.482E-02    0.867E-01
RMM:  28    -0.892545224902E+03   -0.16003E-03   -0.15833E-04  1504   0.294E-02    0.868E-01
RMM:  29    -0.892544145347E+03    0.10796E-02   -0.13440E-04  1483   0.224E-02    0.867E-01
RMM:  30    -0.892542665845E+03    0.14795E-02   -0.15577E-04  1486   0.275E-02    0.863E-01
RMM:  31    -0.892542285653E+03    0.38019E-03   -0.11461E-04  1473   0.247E-02    0.864E-01
RMM:  32    -0.892540365975E+03    0.19197E-02   -0.22983E-04  1629   0.257E-02    0.856E-01
RMM:  33    -0.892540104546E+03    0.26143E-03   -0.10302E-04  1468   0.235E-02    0.854E-01
RMM:  34    -0.892539965080E+03    0.13947E-03   -0.70122E-05  1459   0.208E-02    0.853E-01
RMM:  35    -0.892540408290E+03   -0.44321E-03   -0.43326E-05  1450   0.182E-02    0.850E-01
RMM:  36    -0.892541201194E+03   -0.79290E-03   -0.37438E-05  1444   0.141E-02    0.850E-01
RMM:  37    -0.892541708448E+03   -0.50725E-03   -0.36872E-05  1432   0.137E-02    0.846E-01
RMM:  38    -0.892544801939E+03   -0.30935E-02   -0.34697E-04  1716   0.272E-02    0.842E-01
RMM:  39    -0.892549351902E+03   -0.45500E-02   -0.11389E-03  2198   0.410E-02    0.857E-01
RMM:  40    -0.892548829626E+03    0.52228E-03   -0.12649E-04  1484   0.318E-02    0.855E-01
RMM:  41    -0.892549122287E+03   -0.29266E-03   -0.88554E-05  1449   0.199E-02    0.856E-01
RMM:  42    -0.892549265202E+03   -0.14291E-03   -0.56550E-05  1436   0.224E-02    0.856E-01
RMM:  43    -0.892548654918E+03    0.61028E-03   -0.30253E-05  1421   0.139E-02    0.853E-01
RMM:  44    -0.892544082710E+03    0.45722E-02   -0.29525E-04  1664   0.277E-02    0.836E-01
RMM:  45    -0.892535703323E+03    0.83794E-02   -0.25743E-03  2648   0.473E-02    0.810E-01
RMM:  46    -0.892538992064E+03   -0.32887E-02   -0.10980E-04  1458   0.357E-02    0.819E-01
RMM:  47    -0.892490934893E+03    0.48057E-01   -0.83471E-02  3126   0.309E-01    0.145E+00
RMM:  48    -0.892475293795E+03    0.15641E-01   -0.60231E-02  3129   0.214E-01    0.109E+00
RMM:  49    -0.892475374967E+03   -0.81171E-04   -0.49552E-03  2584   0.714E-02    0.107E+00
RMM:  50    -0.892469347273E+03    0.60277E-02   -0.84332E-02  3113   0.286E-01    0.716E-01
RMM:  51    -0.892483085994E+03   -0.13739E-01   -0.82207E-02  3144   0.244E-01    0.923E-01
RMM:  52    -0.892501358992E+03   -0.18273E-01   -0.44868E-02  3085   0.182E-01    0.139E+00
RMM:  53    -0.892488672367E+03    0.12687E-01   -0.45293E-03  2638   0.105E-01    0.120E+00
RMM:  54    -0.892477518621E+03    0.11154E-01   -0.16958E-02  3051   0.132E-01    0.986E-01
RMM:  55    -0.892470471510E+03    0.70471E-02   -0.19295E-02  3033   0.137E-01    0.846E-01
RMM:  56    -0.892468364545E+03    0.21070E-02   -0.10318E-02  2959   0.104E-01    0.792E-01
RMM:  57    -0.892468041293E+03    0.32325E-03   -0.86263E-03  3015   0.950E-02    0.770E-01
RMM:  58    -0.892468429429E+03   -0.38814E-03   -0.25016E-03  2621   0.513E-02    0.793E-01
RMM:  59    -0.892468794539E+03   -0.36511E-03   -0.94844E-04  2196   0.404E-02    0.829E-01
RMM:  60    -0.892469080412E+03   -0.28587E-03   -0.54109E-04  2024   0.321E-02    0.867E-01
RMM:  61    -0.892469276924E+03   -0.19651E-03   -0.30113E-04  1690   0.317E-02    0.892E-01
RMM:  62    -0.892468664889E+03    0.61204E-03   -0.26082E-04  1673   0.355E-02    0.841E-01
RMM:  63    -0.892468940781E+03   -0.27589E-03   -0.57368E-05  1479   0.188E-02    0.862E-01
RMM:  64    -0.892468940078E+03    0.70286E-06   -0.23122E-05  1464   0.120E-02
   2 F= -.91346935E+03 E0= -.91346935E+03  d E =-.321182E+01  mag=    -0.0000
       N       E                     dE             d eps       ncg     rms          rms(c)
DAV:   1    -0.892469149032E+03   -0.20825E-03   -0.16351E-04  1840   0.194E-02    0.864E-01
RMM:   2    -0.892468219593E+03    0.92944E-03   -0.86175E-03  2817   0.112E-01    0.552E-01
RMM:   3    -0.892468290426E+03   -0.70833E-04   -0.21100E-03  2526   0.735E-02    0.425E-01
RMM:   4    -0.892468196202E+03    0.94224E-04   -0.86418E-04  2168   0.472E-02
   3 F= -.91346860E+03 E0= -.91346860E+03  d E =-.321107E+01  mag=     0.0000
       N       E                     dE             d eps       ncg     rms          rms(c)
DAV:   1    -0.892476520234E+03   -0.82298E-02   -0.42816E-01  2912   0.873E-01    0.226E-01
RMM:   2    -0.892477573385E+03   -0.10532E-02   -0.16045E-02  2805   0.254E-01    0.278E-01
RMM:   3    -0.892477870049E+03   -0.29666E-03   -0.32683E-03  2891   0.572E-02    0.266E-01
RMM:   4    -0.892477839871E+03    0.30178E-04   -0.74889E-04  2081   0.432E-02
   4 F= -.91347789E+03 E0= -.91347789E+03  d E =-.322036E+01  mag=     0.0000
       N       E                     dE             d eps       ncg     rms          rms(c)
DAV:   1    -0.892485904386E+03   -0.80343E-02   -0.22471E+00  2560   0.199E+00    0.497E-01
RMM:   2    -0.892490266530E+03   -0.43621E-02   -0.83184E-02  2869   0.572E-01    0.733E-01
RMM:   3    -0.892492140561E+03   -0.18740E-02   -0.19642E-02  3497   0.129E-01    0.753E-01
RMM:   4    -0.892492798855E+03   -0.65829E-03   -0.76126E-03  3278   0.924E-02    0.776E-01
RMM:   5    -0.892492550519E+03    0.24834E-03   -0.20814E-03  2743   0.477E-02    0.778E-01
RMM:   6    -0.892495187206E+03   -0.26367E-02   -0.25108E-02  3095   0.167E-01    0.843E-01
RMM:   7    -0.892495014638E+03    0.17257E-03   -0.18465E-03  2559   0.493E-02    0.842E-01
RMM:   8    -0.892494767981E+03    0.24666E-03   -0.28158E-04  1621   0.291E-02    0.837E-01
RMM:   9    -0.892494508787E+03    0.25919E-03   -0.15374E-04  1513   0.229E-02    0.831E-01
RMM:  10    -0.892493051635E+03    0.14572E-02   -0.35603E-02  3104   0.200E-01    0.676E-01
RMM:  11    -0.892540989445E+03   -0.47938E-01   -0.26317E-01  3214   0.531E-01    0.115E+00
RMM:  12    -0.892699132143E+03   -0.15814E+00   -0.44216E-01  3218   0.649E-01    0.251E+00
RMM:  13    -0.892695000447E+03    0.41317E-02   -0.27488E-02  3065   0.141E-01    0.261E+00
RMM:  14    -0.892642640594E+03    0.52360E-01   -0.17339E-02  3056   0.153E-01    0.233E+00
RMM:  15    -0.892549090402E+03    0.93550E-01   -0.15160E-01  3205   0.404E-01    0.156E+00
RMM:  16    -0.892505103991E+03    0.43986E-01   -0.14847E-01  3197   0.363E-01    0.868E-01
RMM:  17    -0.892501310411E+03    0.37936E-02   -0.20000E-02  3059   0.114E-01    0.689E-01
RMM:  18    -0.892498651102E+03    0.26593E-02   -0.42760E-03  2897   0.696E-02    0.586E-01
RMM:  19    -0.892495853609E+03    0.27975E-02   -0.45209E-03  3048   0.702E-02    0.465E-01
RMM:  20    -0.892494657238E+03    0.11964E-02   -0.14999E-03  2579   0.454E-02    0.390E-01
RMM:  21    -0.892493134845E+03    0.15224E-02   -0.34500E-03  3044   0.668E-02    0.265E-01
RMM:  22    -0.892493177776E+03   -0.42931E-04   -0.17404E-04  1532   0.238E-02
   5 F= -.91349241E+03 E0= -.91349241E+03  d E =-.323489E+01  mag=    -0.0000
       N       E                     dE             d eps       ncg     rms          rms(c)
DAV:   1    -0.892494202042E+03   -0.10672E-02   -0.57608E-01  2944   0.101E+00    0.355E-01
RMM:   2    -0.892494645899E+03   -0.44386E-03   -0.35914E-02  3139   0.324E-01    0.330E-01
RMM:   3    -0.892494997275E+03   -0.35138E-03   -0.52881E-03  3020   0.639E-02    0.268E-01
RMM:   4    -0.892495151094E+03   -0.15382E-03   -0.36115E-03  2718   0.781E-02    0.206E-01
RMM:   5    -0.892495256188E+03   -0.10509E-03   -0.56436E-04  1897   0.351E-02    0.136E-01
RMM:   6    -0.892495118986E+03    0.13720E-03   -0.31641E-04  1562   0.375E-02    0.787E-02
RMM:   7    -0.892495072462E+03    0.46525E-04   -0.10644E-03  2163   0.414E-02    0.206E-02
RMM:   8    -0.892495090879E+03   -0.18417E-04   -0.20617E-04  1484   0.297E-02
   6 F= -.91349391E+03 E0= -.91349391E+03  d E =-.323638E+01  mag=    -0.0000
       N       E                     dE             d eps       ncg     rms          rms(c)
DAV:   1    -0.892495242747E+03   -0.17029E-03   -0.82344E-03  3072   0.122E-01    0.335E-02
RMM:   2    -0.892495253976E+03   -0.11229E-04   -0.21485E-04  1469   0.390E-02
   7 F= -.91349403E+03 E0= -.91349403E+03  d E =-.323650E+01  mag=    -0.0000
       N       E                     dE             d eps       ncg     rms          rms(c)
DAV:   1    -0.892495106126E+03    0.13662E-03   -0.11300E-01  2592   0.447E-01    0.119E-01
RMM:   2    -0.892495417751E+03   -0.31162E-03   -0.43869E-03  2819   0.129E-01    0.178E-01
RMM:   3    -0.892495493314E+03   -0.75563E-04   -0.77371E-04  2026   0.312E-02
   8 F= -.91349408E+03 E0= -.91349408E+03  d E =-.323656E+01  mag=    -0.0000
       N       E                     dE             d eps       ncg     rms          rms(c)
DAV:   1    -0.892495288585E+03    0.12917E-03   -0.54184E-02  2880   0.312E-01    0.156E-01
RMM:   2    -0.892495356094E+03   -0.67510E-04   -0.21914E-03  2657   0.892E-02    0.433E-02
RMM:   3    -0.892495399143E+03   -0.43049E-04   -0.38374E-04  1691   0.262E-02
   9 F= -.91349412E+03 E0= -.91349412E+03  d E =-.323659E+01  mag=    -0.0000
       N       E                     dE             d eps       ncg     rms          rms(c)
DAV:   1    -0.892495476214E+03   -0.12012E-03   -0.13343E-02  2960   0.156E-01    0.530E-02
RMM:   2    -0.892495484894E+03   -0.86795E-05   -0.39461E-04  1674   0.443E-02
  10 F= -.91349414E+03 E0= -.91349414E+03  d E =-.323661E+01  mag=    -0.0000
       N       E                     dE             d eps       ncg     rms          rms(c)
DAV:   1    -0.892495470845E+03    0.53694E-05   -0.25948E-03  3040   0.720E-02    0.584E-02
RMM:   2    -0.892495474747E+03   -0.39018E-05   -0.52088E-05  1331   0.194E-02
  11 F= -.91349416E+03 E0= -.91349416E+03  d E =-.323663E+01  mag=    -0.0000
       N       E                     dE             d eps       ncg     rms          rms(c)
DAV:   1    -0.892495491065E+03   -0.20220E-04   -0.32374E-04  1984   0.275E-02    0.318E-02
RMM:   2    -0.892495492021E+03   -0.95622E-06   -0.16759E-05  1212   0.121E-02
  12 F= -.91349416E+03 E0= -.91349416E+03  d E =-.323664E+01  mag=    -0.0000
       N       E                     dE             d eps       ncg     rms          rms(c)
DAV:   1    -0.892495490420E+03    0.64478E-06   -0.36704E-05  1408   0.118E-02    0.200E-02
RMM:   2    -0.892495491241E+03   -0.82060E-06   -0.81984E-06  1209   0.882E-03
  13 F= -.91349417E+03 E0= -.91349417E+03  d E =-.323664E+01  mag=    -0.0000
       N       E                     dE             d eps       ncg     rms          rms(c)
DAV:   1    -0.892496502965E+03   -0.10125E-02   -0.75859E-02  2432   0.323E-01    0.670E-02
RMM:   2    -0.892496700381E+03   -0.19742E-03   -0.30681E-03  2780   0.104E-01    0.868E-02
RMM:   3    -0.892496722504E+03   -0.22123E-04   -0.35682E-04  1668   0.245E-02
  14 F= -.91349571E+03 E0= -.91349571E+03  d E =-.154459E-02  mag=    -0.0000
       N       E                     dE             d eps       ncg     rms          rms(c)
DAV:   1    -0.892497033027E+03   -0.33265E-03   -0.16084E-01  2464   0.474E-01    0.146E-01
RMM:   2    -0.892497475982E+03   -0.44295E-03   -0.68236E-03  2919   0.147E-01    0.179E-01
RMM:   3    -0.892497564358E+03   -0.88376E-04   -0.11126E-03  2197   0.346E-02    0.180E-01
RMM:   4    -0.892497553098E+03    0.11260E-04   -0.19784E-04  1507   0.297E-02
  15 F= -.91349700E+03 E0= -.91349700E+03  d E =-.282970E-02  mag=    -0.0000
       N       E                     dE             d eps       ncg     rms          rms(c)
DAV:   1    -0.892493529036E+03    0.40353E-02   -0.64468E-01  2496   0.945E-01    0.324E-01
RMM:   2    -0.892495415553E+03   -0.18865E-02   -0.27368E-02  2921   0.308E-01    0.383E-01
RMM:   3    -0.892495912808E+03   -0.49725E-03   -0.57564E-03  3353   0.704E-02    0.394E-01
RMM:   4    -0.892495861043E+03    0.51766E-04   -0.95457E-04  2144   0.347E-02
  16 F= -.91349619E+03 E0= -.91349619E+03  d E =-.202231E-02  mag=    -0.0000
       N       E                     dE             d eps       ncg     rms          rms(c)
DAV:   1    -0.892497083120E+03   -0.11703E-02   -0.31098E-01  2944   0.663E-01    0.370E-01
RMM:   2    -0.892497376493E+03   -0.29337E-03   -0.16901E-02  3085   0.207E-01    0.139E-01
RMM:   3    -0.892497578427E+03   -0.20193E-03   -0.29079E-03  2763   0.564E-02    0.117E-01
RMM:   4    -0.892497587073E+03   -0.86466E-05   -0.19833E-04  1506   0.395E-02
  17 F= -.91349729E+03 E0= -.91349729E+03  d E =-.312485E-02  mag=    -0.0000
       N       E                     dE             d eps       ncg     rms          rms(c)
DAV:   1    -0.892496808114E+03    0.77031E-03   -0.78981E-02  2912   0.334E-01    0.888E-02
RMM:   2    -0.892497055688E+03   -0.24757E-03   -0.36954E-03  2879   0.107E-01    0.119E-01
RMM:   3    -0.892497073537E+03   -0.17849E-04   -0.31640E-04  1592   0.216E-02
  18 F= -.91349708E+03 E0= -.91349708E+03  d E =-.291108E-02  mag=    -0.0000
       N       E                     dE             d eps       ncg     rms          rms(c)
DAV:   1    -0.892497351536E+03   -0.29585E-03   -0.33866E-02  2688   0.223E-01    0.905E-02
RMM:   2    -0.892497493622E+03   -0.14209E-03   -0.18298E-03  2646   0.725E-02    0.337E-02
RMM:   3    -0.892497512858E+03   -0.19236E-04   -0.14929E-04  1445   0.221E-02
  19 F= -.91349733E+03 E0= -.91349733E+03  d E =-.316398E-02  mag=    -0.0000
       N       E                     dE             d eps       ncg     rms          rms(c)
DAV:   1    -0.892497643567E+03   -0.14995E-03   -0.14485E-01  2432   0.473E-01    0.119E-01
RMM:   2    -0.892498079670E+03   -0.43610E-03   -0.62854E-03  2893   0.145E-01    0.132E-01
RMM:   3    -0.892498126685E+03   -0.47015E-04   -0.66329E-04  1915   0.302E-02
  20 F= -.91349806E+03 E0= -.91349806E+03  d E =-.726420E-03  mag=    -0.0000
       N       E                     dE             d eps       ncg     rms          rms(c)
DAV:   1    -0.892498094155E+03   -0.14485E-04   -0.23184E-03  3088   0.856E-02    0.844E-02
RMM:   2    -0.892498120901E+03   -0.26745E-04   -0.29407E-04  1557   0.339E-02
  21 F= -.91349804E+03 E0= -.91349804E+03  d E =-.707309E-03  mag=    -0.0000
       N       E                     dE             d eps       ncg     rms          rms(c)
DAV:   1    -0.892498130050E+03   -0.35894E-04   -0.78569E-04  2736   0.446E-02    0.506E-02
RMM:   2    -0.892498130136E+03   -0.86031E-07   -0.65616E-05  1261   0.215E-02
  22 F= -.91349806E+03 E0= -.91349806E+03  d E =-.724857E-03  mag=    -0.0000
       N       E                     dE             d eps       ncg     rms          rms(c)
DAV:   1    -0.892498884277E+03   -0.75423E-03   -0.13156E-01  2432   0.422E-01    0.103E-01
RMM:   2    -0.892499205533E+03   -0.32126E-03   -0.39463E-03  2715   0.116E-01    0.111E-01
RMM:   3    -0.892499251073E+03   -0.45540E-04   -0.52735E-04  1764   0.290E-02
  23 F= -.91349903E+03 E0= -.91349903E+03  d E =-.972781E-03  mag=    -0.0000
       N       E                     dE             d eps       ncg     rms          rms(c)
DAV:   1    -0.892499551417E+03   -0.34588E-03   -0.99336E-02  2496   0.368E-01    0.138E-01
RMM:   2    -0.892499782016E+03   -0.23060E-03   -0.30786E-03  2754   0.982E-02    0.140E-01
RMM:   3    -0.892499823102E+03   -0.41087E-04   -0.50796E-04  1720   0.270E-02
  24 F= -.91349947E+03 E0= -.91349947E+03  d E =-.141590E-02  mag=    -0.0000
       N       E                     dE             d eps       ncg     rms          rms(c)
DAV:   1    -0.892499930126E+03   -0.14811E-03   -0.96673E-03  3312   0.119E-01    0.984E-02
RMM:   2    -0.892499938127E+03   -0.80008E-05   -0.24636E-04  1479   0.341E-02
  25 F= -.91349955E+03 E0= -.91349955E+03  d E =-.149056E-02  mag=    -0.0000
       N       E                     dE             d eps       ncg     rms          rms(c)
DAV:   1    -0.892500314791E+03   -0.38466E-03   -0.67768E-02  2496   0.302E-01    0.820E-02
RMM:   2    -0.892500459807E+03   -0.14502E-03   -0.19614E-03  2490   0.794E-02    0.667E-02
RMM:   3    -0.892500484422E+03   -0.24615E-04   -0.29044E-04  1507   0.257E-02
  26 F= -.91350005E+03 E0= -.91350005E+03  d E =-.505754E-03  mag=    -0.0000
       N       E                     dE             d eps       ncg     rms          rms(c)
DAV:   1    -0.892500684705E+03   -0.22490E-03   -0.76412E-02  2720   0.324E-01    0.754E-02
RMM:   2    -0.892500861795E+03   -0.17709E-03   -0.23426E-03  2691   0.885E-02    0.740E-02
RMM:   3    -0.892500882095E+03   -0.20300E-04   -0.28340E-04  1523   0.255E-02
  27 F= -.91350041E+03 E0= -.91350041E+03  d E =-.860662E-03  mag=    -0.0000
       N       E                     dE             d eps       ncg     rms          rms(c)
DAV:   1    -0.892500350127E+03    0.51167E-03   -0.30465E-01  2432   0.641E-01    0.130E-01
RMM:   2    -0.892501043386E+03   -0.69326E-03   -0.90811E-03  2923   0.169E-01    0.132E-01
RMM:   3    -0.892501131415E+03   -0.88029E-04   -0.13136E-03  2290   0.403E-02    0.122E-01
RMM:   4    -0.892501137415E+03   -0.60006E-05   -0.27059E-04  1541   0.305E-02
  28 F= -.91350058E+03 E0= -.91350058E+03  d E =-.103051E-02  mag=    -0.0000
       N       E                     dE             d eps       ncg     rms          rms(c)
DAV:   1    -0.892501367579E+03   -0.23616E-03   -0.55313E-03  3616   0.881E-02    0.460E-02
RMM:   2    -0.892501343898E+03    0.23681E-04   -0.18085E-04  1469   0.329E-02
  29 F= -.91350079E+03 E0= -.91350079E+03  d E =-.207655E-03  mag=    -0.0000
       N       E                     dE             d eps       ncg     rms          rms(c)
DAV:   1    -0.892501490740E+03   -0.12316E-03   -0.54307E-02  2720   0.261E-01    0.587E-02
RMM:   2    -0.892501613996E+03   -0.12326E-03   -0.17007E-03  2419   0.684E-02    0.517E-02
RMM:   3    -0.892501633775E+03   -0.19779E-04   -0.22819E-04  1460   0.245E-02
  30 F= -.91350108E+03 E0= -.91350108E+03  d E =-.501013E-03  mag=    -0.0000
       N       E                     dE             d eps       ncg     rms          rms(c)
DAV:   1    -0.892501493308E+03    0.12069E-03   -0.21592E-01  2496   0.522E-01    0.989E-02
RMM:   2    -0.892501976072E+03   -0.48276E-03   -0.61213E-03  2916   0.130E-01    0.949E-02
RMM:   3    -0.892502024276E+03   -0.48204E-04   -0.72521E-04  1894   0.321E-02
  31 F= -.91350148E+03 E0= -.91350148E+03  d E =-.898564E-03  mag=    -0.0000
       N       E                     dE             d eps       ncg     rms          rms(c)
DAV:   1    -0.892502170633E+03   -0.19456E-03   -0.21878E-03  3344   0.659E-02    0.618E-02
RMM:   2    -0.892502184827E+03   -0.14194E-04   -0.15334E-04  1483   0.257E-02
  32 F= -.91350169E+03 E0= -.91350169E+03  d E =-.211782E-03  mag=    -0.0000
       N       E                     dE             d eps       ncg     rms          rms(c)
DAV:   1    -0.892502287519E+03   -0.11689E-03   -0.56375E-03  2784   0.917E-02    0.500E-02
RMM:   2    -0.892502296280E+03   -0.87615E-05   -0.20690E-04  1482   0.307E-02
  33 F= -.91350188E+03 E0= -.91350188E+03  d E =-.406565E-03  mag=    -0.0000
       N       E                     dE             d eps       ncg     rms          rms(c)
DAV:   1    -0.892502057042E+03    0.23048E-03   -0.22238E-02  2528   0.173E-01    0.779E-02
RMM:   2    -0.892502097487E+03   -0.40446E-04   -0.11463E-03  2286   0.653E-02    0.618E-02
RMM:   3    -0.892502110216E+03   -0.12728E-04   -0.22759E-04  1453   0.278E-02
  34 F= -.91350186E+03 E0= -.91350186E+03  d E =-.387228E-03  mag=    -0.0000
       N       E                     dE             d eps       ncg     rms          rms(c)
DAV:   1    -0.892502278716E+03   -0.18123E-03   -0.97514E-03  3040   0.117E-01    0.341E-02
RMM:   2    -0.892502304948E+03   -0.26232E-04   -0.46836E-04  1608   0.419E-02
  35 F= -.91350194E+03 E0= -.91350194E+03  d E =-.468626E-03  mag=    -0.0000
       N       E                     dE             d eps       ncg     rms          rms(c)
DAV:   1    -0.892502257494E+03    0.21221E-04   -0.22419E-03  2912   0.605E-02    0.175E-02
RMM:   2    -0.892502256599E+03    0.89531E-06   -0.90591E-05  1391   0.218E-02
  36 F= -.91350195E+03 E0= -.91350195E+03  d E =-.476944E-03  mag=    -0.0000
       N       E                     dE             d eps       ncg     rms          rms(c)
DAV:   1    -0.892502297288E+03   -0.39794E-04   -0.46547E-04  2496   0.289E-02    0.110E-02
RMM:   2    -0.892502297091E+03    0.19713E-06   -0.30239E-05  1277   0.139E-02
  37 F= -.91350197E+03 E0= -.91350197E+03  d E =-.490655E-03  mag=    -0.0000
       N       E                     dE             d eps       ncg     rms          rms(c)
DAV:   1    -0.892502334323E+03   -0.37035E-04   -0.22301E-03  2608   0.611E-02    0.148E-02
RMM:   2    -0.892502335302E+03   -0.97866E-06   -0.71612E-05  1390   0.220E-02
  38 F= -.91350208E+03 E0= -.91350208E+03  d E =-.110311E-03  mag=    -0.0000
       N       E                     dE             d eps       ncg     rms          rms(c)
DAV:   1    -0.892502348020E+03   -0.13697E-04   -0.40614E-03  2800   0.824E-02    0.288E-02
RMM:   2    -0.892502353533E+03   -0.55127E-05   -0.14504E-04  1413   0.289E-02
  39 F= -.91350219E+03 E0= -.91350219E+03  d E =-.218277E-03  mag=    -0.0000
       N       E                     dE             d eps       ncg     rms          rms(c)
DAV:   1    -0.892502248512E+03    0.99509E-04   -0.15535E-02  2432   0.160E-01    0.496E-02
RMM:   2    -0.892502295831E+03   -0.47320E-04   -0.81614E-04  2187   0.646E-02
  40 F= -.91350231E+03 E0= -.91350231E+03  d E =-.340019E-03  mag=    -0.0000
       N       E                     dE             d eps       ncg     rms          rms(c)
DAV:   1    -0.892502357535E+03   -0.10902E-03   -0.13770E-03  2880   0.508E-02    0.472E-02
RMM:   2    -0.892502352467E+03    0.50679E-05   -0.58707E-05  1398   0.170E-02
  41 F= -.91350231E+03 E0= -.91350231E+03  d E =-.343411E-03  mag=    -0.0000
       N       E                     dE             d eps       ncg     rms          rms(c)
DAV:   1    -0.892502342107E+03    0.15428E-04   -0.63465E-04  2688   0.378E-02    0.258E-02
RMM:   2    -0.892502342430E+03   -0.32298E-06   -0.56268E-05  1344   0.203E-02
  42 F= -.91350234E+03 E0= -.91350234E+03  d E =-.372844E-03  mag=     0.0000
       N       E                     dE             d eps       ncg     rms          rms(c)
DAV:   1    -0.892502437526E+03   -0.95419E-04   -0.38679E-03  2832   0.687E-02    0.347E-02
RMM:   2    -0.892502442660E+03   -0.51341E-05   -0.91928E-05  1223   0.200E-02
  43 F= -.91350244E+03 E0= -.91350244E+03  d E =-.103786E-03  mag=    -0.0000
       N       E                     dE             d eps       ncg     rms          rms(c)
DAV:   1    -0.892502621152E+03   -0.18363E-03   -0.34361E-02  2512   0.200E-01    0.566E-02
RMM:   2    -0.892502667737E+03   -0.46585E-04   -0.72776E-04  1640   0.479E-02
  44 F= -.91350268E+03 E0= -.91350268E+03  d E =-.339563E-03  mag=     0.0000
       N       E                     dE             d eps       ncg     rms          rms(c)
DAV:   1    -0.892502719839E+03   -0.98687E-04   -0.13815E-01  2432   0.402E-01    0.127E-01
RMM:   2    -0.892502994463E+03   -0.27462E-03   -0.36715E-03  2705   0.973E-02    0.130E-01
RMM:   3    -0.892503012692E+03   -0.18229E-04   -0.32692E-04  1535   0.266E-02
  45 F= -.91350305E+03 E0= -.91350305E+03  d E =-.705906E-03  mag=     0.0000
       N       E                     dE             d eps       ncg     rms          rms(c)
DAV:   1    -0.892501912475E+03    0.10820E-02   -0.53873E-01  2400   0.791E-01    0.199E-01
RMM:   2    -0.892502966646E+03   -0.10542E-02   -0.13171E-02  2741   0.198E-01    0.221E-01
RMM:   3    -0.892503120598E+03   -0.15395E-03   -0.19776E-03  2567   0.502E-02    0.211E-01
RMM:   4    -0.892503114310E+03    0.62880E-05   -0.37756E-04  1651   0.327E-02
  46 F= -.91350319E+03 E0= -.91350319E+03  d E =-.850496E-03  mag=    -0.0000
       N       E                     dE             d eps       ncg     rms          rms(c)
DAV:   1    -0.892503480736E+03   -0.36014E-03   -0.16058E-02  3280   0.122E-01    0.937E-02
RMM:   2    -0.892503370654E+03    0.11008E-03   -0.53884E-04  1714   0.418E-02    0.685E-02
RMM:   3    -0.892503351238E+03    0.19416E-04   -0.44926E-04  1781   0.340E-02
  47 F= -.91350342E+03 E0= -.91350342E+03  d E =-.233233E-03  mag=    -0.0000
       N       E                     dE             d eps       ncg     rms          rms(c)
DAV:   1    -0.892503501920E+03   -0.13127E-03   -0.25425E-02  3168   0.144E-01    0.486E-02
RMM:   2    -0.892503525688E+03   -0.23768E-04   -0.60693E-04  1460   0.388E-02
  48 F= -.91350359E+03 E0= -.91350359E+03  d E =-.403517E-03  mag=    -0.0000
       N       E                     dE             d eps       ncg     rms          rms(c)
DAV:   1    -0.892503581446E+03   -0.79526E-04   -0.96433E-02  2528   0.267E-01    0.734E-02
RMM:   2    -0.892503752845E+03   -0.17140E-03   -0.23319E-03  2029   0.622E-02    0.606E-02
RMM:   3    -0.892503776569E+03   -0.23724E-04   -0.22393E-04  1343   0.263E-02
  49 F= -.91350384E+03 E0= -.91350384E+03  d E =-.646088E-03  mag=    -0.0000
       N       E                     dE             d eps       ncg     rms          rms(c)
DAV:   1    -0.892503321582E+03    0.43126E-03   -0.37882E-01  2432   0.528E-01    0.108E-01
RMM:   2    -0.892504057089E+03   -0.73551E-03   -0.87087E-03  2801   0.118E-01    0.892E-02
RMM:   3    -0.892504108022E+03   -0.50933E-04   -0.71114E-04  1671   0.303E-02
  50 F= -.91350415E+03 E0= -.91350415E+03  d E =-.961017E-03  mag=     0.0000
       N       E                     dE             d eps       ncg     rms          rms(c)
DAV:   1    -0.892504366383E+03   -0.30929E-03   -0.28179E-02  3200   0.135E-01    0.611E-02
RMM:   2    -0.892504404491E+03   -0.38108E-04   -0.57646E-04  1419   0.343E-02
  51 F= -.91350446E+03 E0= -.91350446E+03  d E =-.310496E-03  mag=    -0.0000
       N       E                     dE             d eps       ncg     rms          rms(c)
DAV:   1    -0.892504476864E+03   -0.11048E-03   -0.26404E-01  2432   0.383E-01    0.113E-01
RMM:   2    -0.892504968605E+03   -0.49174E-03   -0.62049E-03  2326   0.778E-02    0.884E-02
RMM:   3    -0.892504983437E+03   -0.14832E-04   -0.42022E-04  1422   0.262E-02
  52 F= -.91350508E+03 E0= -.91350508E+03  d E =-.931528E-03  mag=    -0.0000
       N       E                     dE             d eps       ncg     rms          rms(c)
DAV:   1    -0.892502911120E+03    0.20575E-02   -0.10424E+00  2400   0.764E-01    0.188E-01
RMM:   2    -0.892504868215E+03   -0.19571E-02   -0.23032E-02  2876   0.143E-01    0.147E-01
RMM:   3    -0.892504954966E+03   -0.86751E-04   -0.17001E-03  1872   0.370E-02    0.130E-01
RMM:   4    -0.892504967466E+03   -0.12499E-04   -0.56321E-04  1545   0.322E-02
  53 F= -.91350515E+03 E0= -.91350515E+03  d E =-.999799E-03  mag=     0.0000
       N       E                     dE             d eps       ncg     rms          rms(c)
DAV:   1    -0.892505045314E+03   -0.90348E-04   -0.12316E-01  2784   0.264E-01    0.616E-02
RMM:   2    -0.892505281066E+03   -0.23575E-03   -0.29371E-03  1816   0.538E-02    0.485E-02
RMM:   3    -0.892505283423E+03   -0.23568E-05   -0.21428E-04  1282   0.240E-02
  54 F= -.91350544E+03 E0= -.91350544E+03  d E =-.128778E-02  mag=     0.0000
       N       E                     dE             d eps       ncg     rms          rms(c)
DAV:   1    -0.892505339446E+03   -0.58380E-04   -0.12766E-02  2480   0.881E-02    0.284E-02
RMM:   2    -0.892505377039E+03   -0.37593E-04   -0.33781E-04  1293   0.233E-02
  55 F= -.91350554E+03 E0= -.91350554E+03  d E =-.100984E-03  mag=    -0.0000
       N       E                     dE             d eps       ncg     rms          rms(c)
DAV:   1    -0.892505489100E+03   -0.14965E-03   -0.28207E-02  2624   0.130E-01    0.287E-02
RMM:   2    -0.892505542386E+03   -0.53286E-04   -0.66740E-04  1301   0.277E-02
  56 F= -.91350572E+03 E0= -.91350572E+03  d E =-.277551E-03  mag=     0.0000
       N       E                     dE             d eps       ncg     rms          rms(c)
DAV:   1    -0.892505632511E+03   -0.14341E-03   -0.11038E-01  2448   0.252E-01    0.635E-02
RMM:   2    -0.892505804825E+03   -0.17231E-03   -0.24248E-03  1762   0.513E-02    0.519E-02
RMM:   3    -0.892505825320E+03   -0.20496E-04   -0.21486E-04  1332   0.243E-02
  57 F= -.91350602E+03 E0= -.91350602E+03  d E =-.582936E-03  mag=    -0.0000
       N       E                     dE             d eps       ncg     rms          rms(c)
DAV:   1    -0.892505530309E+03    0.27452E-03   -0.43466E-01  2400   0.500E-01    0.115E-01
RMM:   2    -0.892506292257E+03   -0.76195E-03   -0.92448E-03  2584   0.933E-02    0.930E-02
RMM:   3    -0.892506343058E+03   -0.50801E-04   -0.63309E-04  1489   0.285E-02
  58 F= -.91350658E+03 E0= -.91350658E+03  d E =-.114563E-02  mag=     0.0000
       N       E                     dE             d eps       ncg     rms          rms(c)
DAV:   1    -0.892503682980E+03    0.26093E-02   -0.17311E+00  2368   0.995E-01    0.222E-01
RMM:   2    -0.892506906585E+03   -0.32236E-02   -0.36860E-02  2893   0.189E-01    0.172E-01
RMM:   3    -0.892507136848E+03   -0.23026E-03   -0.28223E-03  2185   0.484E-02    0.154E-01
RMM:   4    -0.892507188645E+03   -0.51797E-04   -0.79228E-04  1667   0.350E-02
  59 F= -.91350752E+03 E0= -.91350752E+03  d E =-.208101E-02  mag=    -0.0000
       N       E                     dE             d eps       ncg     rms          rms(c)
DAV:   1    -0.892492874842E+03    0.14262E-01   -0.69485E+00  2400   0.199E+00    0.429E-01
RMM:   2    -0.892506880683E+03   -0.14006E-01   -0.15494E-01  2951   0.374E-01    0.297E-01
RMM:   3    -0.892507806874E+03   -0.92619E-03   -0.11338E-02  3054   0.886E-02    0.273E-01
RMM:   4    -0.892507767770E+03    0.39104E-04   -0.26242E-03  2406   0.530E-02    0.157E-01
RMM:   5    -0.892508247076E+03   -0.47931E-03   -0.22105E-03  2143   0.434E-02    0.715E-02
RMM:   6    -0.892508196916E+03    0.50161E-04   -0.23993E-04  1562   0.288E-02
  60 F= -.91350871E+03 E0= -.91350871E+03  d E =-.326893E-02  mag=     0.0000
       N       E                     dE             d eps       ncg     rms          rms(c)
DAV:   1    -0.892508421181E+03   -0.17410E-03   -0.68245E-01  2720   0.603E-01    0.156E-01
RMM:   2    -0.892509775319E+03   -0.13541E-02   -0.15886E-02  2761   0.112E-01    0.103E-01
RMM:   3    -0.892509879523E+03   -0.10420E-03   -0.11340E-03  1650   0.317E-02    0.909E-02
RMM:   4    -0.892509923897E+03   -0.44374E-04   -0.19065E-04  1466   0.283E-02
  61 F= -.91351048E+03 E0= -.91351048E+03  d E =-.177305E-02  mag=     0.0000
       N       E                     dE             d eps       ncg     rms          rms(c)
DAV:   1    -0.892498719484E+03    0.11160E-01   -0.57178E+00  2368   0.174E+00    0.411E-01
RMM:   2    -0.892509950567E+03   -0.11231E-01   -0.12435E-01  2850   0.313E-01    0.292E-01
RMM:   3    -0.892510509414E+03   -0.55885E-03   -0.85267E-03  2690   0.783E-02    0.258E-01
RMM:   4    -0.892510407940E+03    0.10147E-03   -0.31156E-03  2059   0.558E-02    0.944E-02
RMM:   5    -0.892510683839E+03   -0.27590E-03   -0.91255E-04  1616   0.342E-02    0.521E-02
RMM:   6    -0.892510661108E+03    0.22731E-04   -0.17619E-04  1472   0.288E-02
  62 F= -.91351135E+03 E0= -.91351135E+03  d E =-.264477E-02  mag=    -0.0000
       N       E                     dE             d eps       ncg     rms          rms(c)
DAV:   1    -0.892509393233E+03    0.12906E-02   -0.10360E+00  2496   0.734E-01    0.163E-01
RMM:   2    -0.892511242007E+03   -0.18488E-02   -0.21730E-02  2696   0.126E-01    0.127E-01
RMM:   3    -0.892511272752E+03   -0.30745E-04   -0.12115E-03  1554   0.330E-02    0.115E-01
RMM:   4    -0.892511207753E+03    0.64999E-04   -0.52662E-04  1452   0.282E-02
  63 F= -.91351184E+03 E0= -.91351184E+03  d E =-.313412E-02  mag=     0.0000
       N       E                     dE             d eps       ncg     rms          rms(c)
DAV:   1    -0.892511198589E+03    0.74162E-04   -0.28258E-02  2848   0.126E-01    0.420E-02
RMM:   2    -0.892511226484E+03   -0.27894E-04   -0.52771E-04  1347   0.257E-02
  64 F= -.91351185E+03 E0= -.91351185E+03  d E =-.314287E-02  mag=    -0.0000
       N       E                     dE             d eps       ncg     rms          rms(c)
DAV:   1    -0.892511235432E+03   -0.36843E-04   -0.19193E-02  2432   0.103E-01    0.178E-02
RMM:   2    -0.892511281102E+03   -0.45670E-04   -0.37299E-04  1236   0.226E-02
  65 F= -.91351191E+03 E0= -.91351191E+03  d E =-.320540E-02  mag=     0.0000
       N       E                     dE             d eps       ncg     rms          rms(c)
DAV:   1    -0.892511271227E+03   -0.35795E-04   -0.33790E-03  1952   0.450E-02    0.155E-02
RMM:   2    -0.892511275339E+03   -0.41117E-05   -0.74103E-05  1175   0.114E-02
  66 F= -.91351190E+03 E0= -.91351190E+03  d E =-.319634E-02  mag=    -0.0000
       N       E                     dE             d eps       ncg     rms          rms(c)
DAV:   1    -0.892511279273E+03   -0.80455E-05   -0.18106E-03  1952   0.320E-02    0.615E-03
RMM:   2    -0.892511284593E+03   -0.53203E-05   -0.37795E-05  1170   0.940E-03
  67 F= -.91351192E+03 E0= -.91351192E+03  d E =-.320805E-02  mag=    -0.0000
       N       E                     dE             d eps       ncg     rms          rms(c)
DAV:   1    -0.892511626219E+03   -0.34695E-03   -0.62404E-02  2432   0.198E-01    0.396E-02
RMM:   2    -0.892511723004E+03   -0.96786E-04   -0.13641E-03  1614   0.482E-02    0.407E-02
RMM:   3    -0.892511740853E+03   -0.17848E-04   -0.16914E-04  1331   0.254E-02
  68 F= -.91351240E+03 E0= -.91351240E+03  d E =-.488468E-03  mag=    -0.0000
       N       E                     dE             d eps       ncg     rms          rms(c)
DAV:   1    -0.892511712667E+03    0.10338E-04   -0.56007E-01  2400   0.595E-01    0.131E-01
RMM:   2    -0.892512828281E+03   -0.11156E-02   -0.13747E-02  2874   0.139E-01    0.122E-01
RMM:   3    -0.892512893617E+03   -0.65336E-04   -0.10931E-03  1872   0.340E-02    0.114E-01
RMM:   4    -0.892512875034E+03    0.18583E-04   -0.25509E-04  1466   0.288E-02
  69 F= -.91351364E+03 E0= -.91351364E+03  d E =-.171927E-02  mag=     0.0000
       N       E                     dE             d eps       ncg     rms          rms(c)
DAV:   1    -0.892509367312E+03    0.35263E-02   -0.22001E+00  2368   0.117E+00    0.253E-01
RMM:   2    -0.892513882745E+03   -0.45154E-02   -0.54304E-02  2988   0.286E-01    0.195E-01
RMM:   3    -0.892514398048E+03   -0.51530E-03   -0.57697E-03  3173   0.671E-02    0.178E-01
RMM:   4    -0.892514411280E+03   -0.13231E-04   -0.11750E-03  2327   0.438E-02    0.116E-01
RMM:   5    -0.892514671154E+03   -0.25987E-03   -0.10407E-03  2038   0.382E-02    0.446E-02
RMM:   6    -0.892514664448E+03    0.67065E-05   -0.17169E-04  1499   0.263E-02
  70 F= -.91351562E+03 E0= -.91351562E+03  d E =-.370195E-02  mag=    -0.0000
       N       E                     dE             d eps       ncg     rms          rms(c)
DAV:   1    -0.892492127195E+03    0.22544E-01   -0.89468E+00  2368   0.236E+00    0.504E-01
RMM:   2    -0.892512331365E+03   -0.20204E-01   -0.23117E-01  3008   0.579E-01    0.410E-01
RMM:   3    -0.892514170624E+03   -0.18393E-02   -0.23111E-02  3574   0.134E-01    0.383E-01
RMM:   4    -0.892513873045E+03    0.29758E-03   -0.53305E-03  3354   0.724E-02    0.282E-01
RMM:   5    -0.892514510655E+03   -0.63761E-03   -0.50092E-03  3231   0.585E-02    0.114E-01
RMM:   6    -0.892514578272E+03   -0.67618E-04   -0.12310E-03  2374   0.406E-02    0.768E-02
RMM:   7    -0.892514559280E+03    0.18992E-04   -0.81692E-04  2094   0.389E-02
  71 F= -.91351590E+03 E0= -.91351590E+03  d E =-.398356E-02  mag=     0.0000
       N       E                     dE             d eps       ncg     rms          rms(c)
DAV:   1    -0.892506630429E+03    0.79478E-02   -0.39017E+00  2624   0.155E+00    0.313E-01
RMM:   2    -0.892514710359E+03   -0.80799E-02   -0.94171E-02  2949   0.369E-01    0.274E-01
RMM:   3    -0.892515174879E+03   -0.46452E-03   -0.77276E-03  2861   0.831E-02    0.257E-01
RMM:   4    -0.892514905209E+03    0.26967E-03   -0.15408E-03  2217   0.525E-02    0.178E-01
RMM:   5    -0.892515257192E+03   -0.35198E-03   -0.24581E-03  2236   0.466E-02    0.680E-02
RMM:   6    -0.892515232972E+03    0.24219E-04   -0.25274E-04  1451   0.322E-02
  72 F= -.91351632E+03 E0= -.91351632E+03  d E =-.440121E-02  mag=    -0.0000
       N       E                     dE             d eps       ncg     rms          rms(c)
DAV:   1    -0.892514867750E+03    0.38944E-03   -0.21288E-01  2656   0.363E-01    0.763E-02
RMM:   2    -0.892515249999E+03   -0.38225E-03   -0.48649E-03  2405   0.827E-02    0.660E-02
RMM:   3    -0.892515254552E+03   -0.45536E-05   -0.35257E-04  1454   0.264E-02
  73 F= -.91351640E+03 E0= -.91351640E+03  d E =-.448267E-02  mag=    -0.0000
       N       E                     dE             d eps       ncg     rms          rms(c)
DAV:   1    -0.892514805112E+03    0.44489E-03   -0.68924E-01  2464   0.596E-01    0.141E-01
RMM:   2    -0.892516013582E+03   -0.12085E-02   -0.14785E-02  2724   0.126E-01    0.120E-01
RMM:   3    -0.892516046454E+03   -0.32872E-04   -0.97583E-04  1682   0.362E-02
  74 F= -.91351731E+03 E0= -.91351731E+03  d E =-.916260E-03  mag=    -0.0000
       N       E                     dE             d eps       ncg     rms          rms(c)
DAV:   1    -0.892504713666E+03    0.11300E-01   -0.61824E+00  2368   0.178E+00    0.401E-01
RMM:   2    -0.892516807359E+03   -0.12094E-01   -0.13498E-01  2828   0.365E-01    0.307E-01
RMM:   3    -0.892517590807E+03   -0.78345E-03   -0.10661E-02  3131   0.961E-02    0.286E-01
RMM:   4    -0.892517479349E+03    0.11146E-03   -0.31846E-03  2515   0.500E-02    0.137E-01
RMM:   5    -0.892517989563E+03   -0.51021E-03   -0.19997E-03  1939   0.399E-02    0.667E-02
RMM:   6    -0.892517922584E+03    0.66980E-04   -0.22228E-04  1517   0.310E-02
  75 F= -.91351956E+03 E0= -.91351956E+03  d E =-.316628E-02  mag=    -0.0000
       N       E                     dE             d eps       ncg     rms          rms(c)
DAV:   1    -0.892516862409E+03    0.11272E-02   -0.51769E-01  2752   0.518E-01    0.123E-01
RMM:   2    -0.892517941880E+03   -0.10795E-02   -0.12580E-02  2837   0.109E-01    0.835E-02
RMM:   3    -0.892518042430E+03   -0.10055E-03   -0.94487E-04  1726   0.294E-02    0.766E-02
RMM:   4    -0.892518091700E+03   -0.49270E-04   -0.18246E-04  1455   0.254E-02
  76 F= -.91351984E+03 E0= -.91351984E+03  d E =-.344250E-02  mag=    -0.0000
       N       E                     dE             d eps       ncg     rms          rms(c)
DAV:   1    -0.892513901813E+03    0.41406E-02   -0.20269E+00  2368   0.102E+00    0.221E-01
RMM:   2    -0.892517840743E+03   -0.39389E-02   -0.44706E-02  2848   0.213E-01    0.158E-01
RMM:   3    -0.892518140836E+03   -0.30009E-03   -0.36053E-03  2572   0.566E-02    0.150E-01
RMM:   4    -0.892518137772E+03    0.30640E-05   -0.68576E-04  1706   0.339E-02
  77 F= -.91352010E+03 E0= -.91352010E+03  d E =-.370300E-02  mag=    -0.0000
       N       E                     dE             d eps       ncg     rms          rms(c)
DAV:   1    -0.892515320595E+03    0.28202E-02   -0.20475E+00  2368   0.990E-01    0.243E-01
RMM:   2    -0.892519200925E+03   -0.38803E-02   -0.44684E-02  2952   0.206E-01    0.167E-01
RMM:   3    -0.892519483207E+03   -0.28228E-03   -0.31255E-03  2399   0.493E-02    0.148E-01
RMM:   4    -0.892519568102E+03   -0.84895E-04   -0.83340E-04  1802   0.403E-02
  78 F= -.91352194E+03 E0= -.91352194E+03  d E =-.183526E-02  mag=     0.0000
       N       E                     dE             d eps       ncg     rms          rms(c)
DAV:   1    -0.892511088472E+03    0.83947E-02   -0.40718E+00  2368   0.139E+00    0.337E-01
RMM:   2    -0.892519115670E+03   -0.80272E-02   -0.91441E-02  2983   0.291E-01    0.236E-01
RMM:   3    -0.892519724975E+03   -0.60931E-03   -0.70309E-03  3064   0.714E-02    0.213E-01
RMM:   4    -0.892519756228E+03   -0.31253E-04   -0.17928E-03  2432   0.464E-02    0.122E-01
RMM:   5    -0.892520088599E+03   -0.33237E-03   -0.13389E-03  2001   0.396E-02    0.548E-02
RMM:   6    -0.892520064613E+03    0.23986E-04   -0.15504E-04  1502   0.276E-02
  79 F= -.91352300E+03 E0= -.91352300E+03  d E =-.290043E-02  mag=    -0.0000
       N       E                     dE             d eps       ncg     rms          rms(c)
DAV:   1    -0.892519944767E+03    0.14383E-03   -0.26017E-01  2928   0.348E-01    0.961E-02
RMM:   2    -0.892520460861E+03   -0.51609E-03   -0.63386E-03  2437   0.770E-02    0.655E-02
RMM:   3    -0.892520514373E+03   -0.53512E-04   -0.50827E-04  1576   0.278E-02
  80 F= -.91352361E+03 E0= -.91352361E+03  d E =-.604527E-03  mag=     0.0000
       N       E                     dE             d eps       ncg     rms          rms(c)
DAV:   1    -0.892516767250E+03    0.36936E-02   -0.22947E+00  2368   0.102E+00    0.262E-01
RMM:   2    -0.892521147825E+03   -0.43806E-02   -0.50858E-02  2966   0.208E-01    0.201E-01
RMM:   3    -0.892521447751E+03   -0.29993E-03   -0.37469E-03  2410   0.535E-02    0.182E-01
RMM:   4    -0.892521556748E+03   -0.10900E-03   -0.16745E-03  1987   0.438E-02    0.646E-02
RMM:   5    -0.892521740200E+03   -0.18345E-03   -0.48836E-04  1527   0.303E-02    0.432E-02
RMM:   6    -0.892521722159E+03    0.18041E-04   -0.12331E-04  1444   0.286E-02
  81 F= -.91352528E+03 E0= -.91352528E+03  d E =-.227667E-02  mag=    -0.0000
       N       E                     dE             d eps       ncg     rms          rms(c)
DAV:   1    -0.892500841965E+03    0.20898E-01   -0.92040E+00  2400   0.205E+00    0.505E-01
RMM:   2    -0.892520102525E+03   -0.19261E-01   -0.21466E-01  2940   0.416E-01    0.351E-01
RMM:   3    -0.892521348512E+03   -0.12460E-02   -0.15872E-02  3438   0.105E-01    0.326E-01
RMM:   4    -0.892521228146E+03    0.12037E-03   -0.52046E-03  3184   0.644E-02    0.166E-01
RMM:   5    -0.892521757749E+03   -0.52960E-03   -0.23847E-03  2134   0.382E-02    0.781E-02
RMM:   6    -0.892521716312E+03    0.41437E-04   -0.42920E-04  1643   0.357E-02
  82 F= -.91352620E+03 E0= -.91352620E+03  d E =-.320072E-02  mag=    -0.0000
       N       E                     dE             d eps       ncg     rms          rms(c)
DAV:   1    -0.892517433063E+03    0.43247E-02   -0.24236E+00  2592   0.105E+00    0.240E-01
RMM:   2    -0.892521975236E+03   -0.45422E-02   -0.52126E-02  2773   0.202E-01    0.183E-01
RMM:   3    -0.892522092993E+03   -0.11776E-03   -0.30075E-03  2066   0.500E-02    0.172E-01
RMM:   4    -0.892521993800E+03    0.99193E-04   -0.13450E-03  1741   0.406E-02    0.694E-02
RMM:   5    -0.892522197388E+03   -0.20359E-03   -0.77291E-04  1514   0.258E-02    0.432E-02
RMM:   6    -0.892522172272E+03    0.25116E-04   -0.83098E-05  1382   0.210E-02
  83 F= -.91352618E+03 E0= -.91352618E+03  d E =-.317797E-02  mag=     0.0000
       N       E                     dE             d eps       ncg     rms          rms(c)
DAV:   1    -0.892520789959E+03    0.14074E-02   -0.66557E-01  2528   0.551E-01    0.124E-01
RMM:   2    -0.892521978527E+03   -0.11886E-02   -0.14177E-02  2605   0.108E-01    0.937E-02
RMM:   3    -0.892522016542E+03   -0.38015E-04   -0.83240E-04  1538   0.309E-02
  84 F= -.91352628E+03 E0= -.91352628E+03  d E =-.327354E-02  mag=     0.0000
       N       E                     dE             d eps       ncg     rms          rms(c)
DAV:   1    -0.892522296043E+03   -0.31752E-03   -0.11486E-01  2864   0.232E-01    0.871E-02
RMM:   2    -0.892522437310E+03   -0.14127E-03   -0.21724E-03  1661   0.468E-02    0.720E-02
RMM:   3    -0.892522464976E+03   -0.27666E-04   -0.19868E-04  1376   0.243E-02
  85 F= -.91352678E+03 E0= -.91352678E+03  d E =-.508683E-03  mag=    -0.0000
       N       E                     dE             d eps       ncg     rms          rms(c)
DAV:   1    -0.892521637550E+03    0.79976E-03   -0.10643E+00  2368   0.686E-01    0.167E-01
RMM:   2    -0.892523559735E+03   -0.19222E-02   -0.22460E-02  2885   0.132E-01    0.124E-01
RMM:   3    -0.892523682481E+03   -0.12275E-03   -0.13855E-03  1648   0.337E-02    0.115E-01
RMM:   4    -0.892523711890E+03   -0.29409E-04   -0.31473E-04  1503   0.289E-02
  86 F= -.91352821E+03 E0= -.91352821E+03  d E =-.193647E-02  mag=    -0.0000
       N       E                     dE             d eps       ncg     rms          rms(c)
DAV:   1    -0.892516614565E+03    0.70679E-02   -0.42602E+00  2368   0.137E+00    0.335E-01
RMM:   2    -0.892524754013E+03   -0.81394E-02   -0.92724E-02  2933   0.268E-01    0.231E-01
RMM:   3    -0.892525354213E+03   -0.60020E-03   -0.64501E-03  2657   0.670E-02    0.215E-01
RMM:   4    -0.892525474014E+03   -0.11980E-03   -0.20190E-03  2192   0.556E-02    0.949E-02
RMM:   5    -0.892525730944E+03   -0.25693E-03   -0.79454E-04  1654   0.316E-02    0.469E-02
RMM:   6    -0.892525735591E+03   -0.46467E-05   -0.15828E-04  1469   0.283E-02
  87 F= -.91353060E+03 E0= -.91353060E+03  d E =-.432315E-02  mag=    -0.0000
       N       E                     dE             d eps       ncg     rms          rms(c)
DAV:   1    -0.892487309016E+03    0.38422E-01   -0.17220E+01  2368   0.275E+00    0.708E-01
RMM:   2    -0.892524048977E+03   -0.36740E-01   -0.40641E-01  2960   0.542E-01    0.475E-01
RMM:   3    -0.892526196823E+03   -0.21478E-02   -0.27275E-02  3395   0.139E-01    0.447E-01
RMM:   4    -0.892525977218E+03    0.21961E-03   -0.10603E-02  3237   0.871E-02    0.206E-01
RMM:   5    -0.892526754008E+03   -0.77679E-03   -0.38025E-03  2613   0.487E-02    0.109E-01
RMM:   6    -0.892526672957E+03    0.81052E-04   -0.80469E-04  1945   0.381E-02
  88 F= -.91353227E+03 E0= -.91353227E+03  d E =-.599140E-02  mag=     0.0000
       N       E                     dE             d eps       ncg     rms          rms(c)
DAV:   1    -0.892522437971E+03    0.43160E-02   -0.23105E+00  2688   0.102E+00    0.231E-01
RMM:   2    -0.892526675914E+03   -0.42379E-02   -0.49156E-02  2853   0.188E-01    0.179E-01
RMM:   3    -0.892526755730E+03   -0.79817E-04   -0.26174E-03  1884   0.465E-02    0.170E-01
RMM:   4    -0.892526625502E+03    0.13023E-03   -0.92199E-04  1628   0.356E-02    0.838E-02
RMM:   5    -0.892526842663E+03   -0.21716E-03   -0.11292E-03  1656   0.263E-02    0.421E-02
RMM:   6    -0.892526811609E+03    0.31054E-04   -0.73362E-05  1430   0.199E-02
  89 F= -.91353214E+03 E0= -.91353214E+03  d E =-.586085E-02  mag=     0.0000
       N       E                     dE             d eps       ncg     rms          rms(c)
DAV:   1    -0.892525491130E+03    0.13515E-02   -0.67941E-01  2560   0.549E-01    0.123E-01
RMM:   2    -0.892526688788E+03   -0.11977E-02   -0.14231E-02  2599   0.105E-01    0.932E-02
RMM:   3    -0.892526736016E+03   -0.47227E-04   -0.86286E-04  1585   0.322E-02
  90 F= -.91353221E+03 E0= -.91353221E+03  d E =-.593137E-02  mag=     0.0000
       N       E                     dE             d eps       ncg     rms          rms(c)
DAV:   1    -0.892527049630E+03   -0.36084E-03   -0.18307E-01  2800   0.289E-01    0.112E-01
RMM:   2    -0.892527273651E+03   -0.22402E-03   -0.35314E-03  1824   0.543E-02    0.933E-02
RMM:   3    -0.892527307946E+03   -0.34295E-04   -0.27318E-04  1444   0.268E-02
  91 F= -.91353288E+03 E0= -.91353288E+03  d E =-.673664E-03  mag=     0.0000
       N       E                     dE             d eps       ncg     rms          rms(c)
DAV:   1    -0.892525378174E+03    0.18955E-02   -0.16584E+00  2432   0.844E-01    0.218E-01
RMM:   2    -0.892528333360E+03   -0.29552E-02   -0.34274E-02  2823   0.154E-01    0.158E-01
RMM:   3    -0.892528531007E+03   -0.19765E-03   -0.21963E-03  1864   0.443E-02    0.143E-01
RMM:   4    -0.892528600612E+03   -0.69605E-04   -0.65078E-04  1608   0.331E-02
  92 F= -.91353448E+03 E0= -.91353448E+03  d E =-.227190E-02  mag=     0.0000
       N       E                     dE             d eps       ncg     rms          rms(c)
DAV:   1    -0.892515055381E+03    0.13476E-01   -0.66703E+00  2368   0.168E+00    0.431E-01
RMM:   2    -0.892527833363E+03   -0.12778E-01   -0.14263E-01  2840   0.312E-01    0.293E-01
RMM:   3    -0.892528642004E+03   -0.80864E-03   -0.93416E-03  2816   0.840E-02    0.272E-01
RMM:   4    -0.892528725165E+03   -0.83160E-04   -0.33281E-03  2378   0.602E-02    0.117E-01
RMM:   5    -0.892529081264E+03   -0.35610E-03   -0.13450E-03  1781   0.399E-02    0.601E-02
RMM:   6    -0.892529047452E+03    0.33812E-04   -0.28524E-04  1514   0.313E-02
  93 F= -.91353554E+03 E0= -.91353554E+03  d E =-.333207E-02  mag=    -0.0000
       N       E                     dE             d eps       ncg     rms          rms(c)
DAV:   1    -0.892528142083E+03    0.93918E-03   -0.69070E-01  2704   0.540E-01    0.131E-01
RMM:   2    -0.892529288265E+03   -0.11462E-02   -0.14158E-02  2378   0.961E-02    0.105E-01
RMM:   3    -0.892529310542E+03   -0.22277E-04   -0.80529E-04  1487   0.319E-02
  94 F= -.91353561E+03 E0= -.91353561E+03  d E =-.339804E-02  mag=    -0.0000
       N       E                     dE             d eps       ncg     rms          rms(c)
DAV:   1    -0.892529192029E+03    0.96237E-04   -0.18765E-01  2688   0.293E-01    0.748E-02
RMM:   2    -0.892529657343E+03   -0.46531E-03   -0.44334E-03  1871   0.583E-02    0.302E-02
RMM:   3    -0.892529714824E+03   -0.57481E-04   -0.33867E-04  1387   0.270E-02
  95 F= -.91353620E+03 E0= -.91353620E+03  d E =-.593936E-03  mag=     0.0000
       N       E                     dE             d eps       ncg     rms          rms(c)
DAV:   1    -0.892527430883E+03    0.22265E-02   -0.16313E+00  2432   0.862E-01    0.204E-01
RMM:   2    -0.892530488227E+03   -0.30573E-02   -0.35226E-02  2840   0.165E-01    0.151E-01
RMM:   3    -0.892530630282E+03   -0.14205E-03   -0.20537E-03  1904   0.429E-02    0.140E-01
RMM:   4    -0.892530646827E+03   -0.16546E-04   -0.87911E-04  1596   0.364E-02
  96 F= -.91353770E+03 E0= -.91353770E+03  d E =-.209530E-02  mag=     0.0000
       N       E                     dE             d eps       ncg     rms          rms(c)
DAV:   1    -0.892518140945E+03    0.12489E-01   -0.64532E+00  2368   0.171E+00    0.411E-01
RMM:   2    -0.892530656101E+03   -0.12515E-01   -0.14030E-01  2825   0.332E-01    0.274E-01
RMM:   3    -0.892531565544E+03   -0.90944E-03   -0.99433E-03  2983   0.881E-02    0.258E-01
RMM:   4    -0.892531640099E+03   -0.74555E-04   -0.27159E-03  2389   0.546E-02    0.123E-01
RMM:   5    -0.892532067032E+03   -0.42693E-03   -0.15837E-03  1869   0.401E-02    0.602E-02
RMM:   6    -0.892532032393E+03    0.34638E-04   -0.19995E-04  1491   0.303E-02
  97 F= -.91354023E+03 E0= -.91354023E+03  d E =-.462154E-02  mag=     0.0000
       N       E                     dE             d eps       ncg     rms          rms(c)
DAV:   1    -0.892529454664E+03    0.26124E-02   -0.11777E+00  2656   0.731E-01    0.186E-01
RMM:   2    -0.892531742482E+03   -0.22878E-02   -0.26587E-02  2879   0.143E-01    0.117E-01
RMM:   3    -0.892531951605E+03   -0.20912E-03   -0.18596E-03  1920   0.385E-02    0.105E-01
RMM:   4    -0.892532060339E+03   -0.10873E-03   -0.38729E-04  1517   0.310E-02    0.481E-02
RMM:   5    -0.892532174945E+03   -0.11461E-03   -0.23167E-04  1455   0.255E-02    0.226E-02
RMM:   6    -0.892532174937E+03    0.76398E-08   -0.72765E-05  1427   0.228E-02
  98 F= -.91354085E+03 E0= -.91354085E+03  d E =-.524907E-02  mag=     0.0000
       N       E                     dE             d eps       ncg     rms          rms(c)
DAV:   1    -0.892521747154E+03    0.10428E-01   -0.46980E+00  2368   0.145E+00    0.344E-01
RMM:   2    -0.892530966430E+03   -0.92193E-02   -0.10343E-01  2843   0.283E-01    0.237E-01
RMM:   3    -0.892531551264E+03   -0.58483E-03   -0.70149E-03  2875   0.753E-02    0.222E-01
RMM:   4    -0.892531556210E+03   -0.49454E-05   -0.20743E-03  2189   0.472E-02    0.100E-01
RMM:   5    -0.892531900891E+03   -0.34468E-03   -0.12736E-03  1737   0.361E-02    0.497E-02
RMM:   6    -0.892531868186E+03    0.32705E-04   -0.14696E-04  1453   0.286E-02
  99 F= -.91354152E+03 E0= -.91354152E+03  d E =-.591381E-02  mag=     0.0000
       N       E                     dE             d eps       ncg     rms          rms(c)
DAV:   1    -0.892530944367E+03    0.95652E-03   -0.64643E-01  2720   0.540E-01    0.119E-01
RMM:   2    -0.892532032453E+03   -0.10881E-02   -0.13209E-02  2429   0.974E-02    0.915E-02
RMM:   3    -0.892532068003E+03   -0.35550E-04   -0.73248E-04  1473   0.315E-02
 100 F= -.91354136E+03 E0= -.91354136E+03  d E =-.575112E-02  mag=     0.0000
