       N       E                     dE             d eps       ncg     rms          rms(c)
DAV:   1     0.159315728678E+05    0.15932E+05   -0.34585E+05  2368   0.150E+03
DAV:   2     0.576508450500E+04   -0.10166E+05   -0.89184E+04  2496   0.399E+02
DAV:   3     0.561256871441E+03   -0.52038E+04   -0.49505E+04  3008   0.263E+02
DAV:   4    -0.947499698563E+03   -0.15088E+04   -0.13904E+04  3312   0.135E+02
DAV:   5    -0.110354757149E+04   -0.15605E+03   -0.15434E+03  3952   0.568E+01    0.157E+02
RMM:   6    -0.905460428412E+03    0.19809E+03   -0.56462E+02  3266   0.295E+01    0.972E+01
RMM:   7    -0.101556465570E+04   -0.11010E+03   -0.12499E+03  3517   0.310E+01    0.173E+02
RMM:   8    -0.101466509810E+04    0.89956E+00   -0.39219E+02  3202   0.234E+01    0.187E+02
RMM:   9    -0.899183870753E+03    0.11548E+03   -0.80868E+01  3328   0.905E+00    0.486E+01
RMM:  10    -0.106364972699E+04   -0.16447E+03   -0.42593E+02  2974   0.340E+01    0.210E+02
RMM:  11    -0.915223952693E+03    0.14843E+03   -0.14596E+02  3320   0.122E+01    0.819E+01
RMM:  12    -0.918795578183E+03   -0.35716E+01   -0.25979E+01  3237   0.680E+00    0.584E+01
RMM:  13    -0.916238852073E+03    0.25567E+01   -0.20588E+01  3232   0.567E+00    0.629E+01
RMM:  14    -0.918404036742E+03   -0.21652E+01   -0.12462E+01  3310   0.406E+00    0.813E+01
RMM:  15    -0.918027918689E+03    0.37612E+00   -0.66274E+00  3359   0.283E+00    0.712E+01
RMM:  16    -0.919519677801E+03   -0.14918E+01   -0.50396E+00  3282   0.273E+00    0.990E+01
RMM:  17    -0.917529426055E+03    0.19903E+01   -0.32912E+00  3273   0.219E+00    0.777E+01
RMM:  18    -0.913865162502E+03    0.36643E+01   -0.82336E-01  3373   0.148E+00    0.581E+01
RMM:  19    -0.915061731598E+03   -0.11966E+01   -0.92818E-01  3442   0.102E+00    0.899E+01
RMM:  20    -0.908457875439E+03    0.66039E+01   -0.13238E+00  3203   0.154E+00    0.476E+01
RMM:  21    -0.907565091648E+03    0.89278E+00   -0.11656E+00  3311   0.131E+00    0.484E+01
RMM:  22    -0.905499338817E+03    0.20658E+01   -0.92056E-01  3202   0.141E+00    0.385E+01
RMM:  23    -0.904350748256E+03    0.11486E+01   -0.95409E-01  3303   0.113E+00    0.413E+01
RMM:  24    -0.904404290792E+03   -0.53543E-01   -0.14932E-01  3169   0.690E-01    0.410E+01
RMM:  25    -0.905346282065E+03   -0.94199E+00   -0.90138E-01  3294   0.111E+00    0.403E+01
RMM:  26    -0.904967696657E+03    0.37859E+00   -0.19376E+00  3261   0.156E+00    0.388E+01
RMM:  27    -0.903700221138E+03    0.12675E+01   -0.19793E+00  3276   0.167E+00    0.376E+01
RMM:  28    -0.903523953058E+03    0.17627E+00   -0.23610E+00  3289   0.166E+00    0.374E+01
RMM:  29    -0.902220970950E+03    0.13030E+01   -0.19738E+00  3307   0.165E+00    0.359E+01
RMM:  30    -0.902290750639E+03   -0.69780E-01   -0.11873E+00  3296   0.120E+00    0.353E+01
RMM:  31    -0.902452020249E+03   -0.16127E+00   -0.71868E-01  3313   0.966E-01    0.373E+01
RMM:  32    -0.902512716436E+03   -0.60696E-01   -0.14755E-01  3405   0.422E-01    0.386E+01
RMM:  33    -0.902491563042E+03    0.21153E-01   -0.48267E-02  3658   0.237E-01    0.372E+01
RMM:  34    -0.902513048956E+03   -0.21486E-01   -0.23901E-02  3648   0.164E-01    0.369E+01
RMM:  35    -0.902520960992E+03   -0.79120E-02   -0.53984E-02  3255   0.284E-01    0.378E+01
RMM:  36    -0.902446698188E+03    0.74263E-01   -0.20634E-02  3211   0.212E-01    0.385E+01
RMM:  37    -0.903007400417E+03   -0.56070E+00   -0.11225E-01  3154   0.429E-01    0.372E+01
RMM:  38    -0.903854824847E+03   -0.84742E+00   -0.19497E-01  3137   0.626E-01    0.401E+01
RMM:  39    -0.903821707169E+03    0.33118E-01   -0.48094E-02  3209   0.275E-01    0.401E+01
RMM:  40    -0.904100189353E+03   -0.27848E+00   -0.17676E-02  3084   0.162E-01    0.404E+01
RMM:  41    -0.904142349020E+03   -0.42160E-01   -0.82930E-03  2944   0.132E-01    0.406E+01
RMM:  42    -0.904014902365E+03    0.12745E+00   -0.10114E-02  2894   0.174E-01    0.406E+01
RMM:  43    -0.903964774329E+03    0.50128E-01   -0.57999E-03  2796   0.136E-01    0.405E+01
RMM:  44    -0.903991518283E+03   -0.26744E-01   -0.24687E-03  2529   0.844E-02    0.406E+01
RMM:  45    -0.903900767636E+03    0.90751E-01   -0.17097E-02  2907   0.161E-01    0.402E+01
RMM:  46    -0.903921419451E+03   -0.20652E-01   -0.42606E-03  2484   0.110E-01    0.402E+01
RMM:  47    -0.903972302589E+03   -0.50883E-01   -0.62130E-03  2679   0.113E-01    0.403E+01
RMM:  48    -0.903996831859E+03   -0.24529E-01   -0.83493E-03  2486   0.182E-01    0.403E+01
RMM:  49    -0.903971305159E+03    0.25527E-01   -0.23567E-03  2368   0.973E-02    0.411E+01
RMM:  50    -0.904041923507E+03   -0.70618E-01   -0.83216E-03  2809   0.135E-01    0.404E+01
RMM:  51    -0.896116237402E+03    0.79257E+01   -0.69690E+01  3293   0.881E+00    0.510E+01
RMM:  52    -0.895273152233E+03    0.84309E+00   -0.15636E+01  3086   0.586E+00    0.547E+01
RMM:  53    -0.889403669635E+03    0.58695E+01   -0.30355E+00  3148   0.253E+00    0.413E+01
RMM:  54    -0.891087928238E+03   -0.16843E+01   -0.13292E+00  3276   0.122E+00    0.411E+01
RMM:  55    -0.890781467326E+03    0.30646E+00   -0.63662E-01  3251   0.100E+00    0.405E+01
RMM:  56    -0.888856434878E+03    0.19250E+01   -0.12027E+01  3227   0.366E+00    0.412E+01
RMM:  57    -0.886653554445E+03    0.22029E+01   -0.36993E+00  3182   0.277E+00    0.400E+01
RMM:  58    -0.885624317036E+03    0.10292E+01   -0.83394E-01  3283   0.104E+00    0.362E+01
RMM:  59    -0.886714218248E+03   -0.10899E+01   -0.71773E-01  3272   0.101E+00    0.370E+01
RMM:  60    -0.886800360607E+03   -0.86142E-01   -0.50401E-01  3281   0.953E-01    0.352E+01
RMM:  61    -0.900289907366E+03   -0.13490E+02   -0.62789E+01  3325   0.670E+00    0.453E+01
RMM:  62    -0.893055893831E+03    0.72340E+01   -0.31188E+01  3019   0.964E+00    0.286E+01
RMM:  63    -0.891266147431E+03    0.17897E+01   -0.74250E+00  3134   0.387E+00    0.278E+01
RMM:  64    -0.890739108802E+03    0.52704E+00   -0.33810E+00  3258   0.224E+00    0.280E+01
RMM:  65    -0.888779549532E+03    0.19596E+01   -0.31627E+00  3245   0.221E+00    0.294E+01
RMM:  66    -0.887252333301E+03    0.15272E+01   -0.40528E+00  3272   0.233E+00    0.293E+01
RMM:  67    -0.886890865529E+03    0.36147E+00   -0.10212E+00  3292   0.122E+00    0.295E+01
RMM:  68    -0.887132662804E+03   -0.24180E+00   -0.38219E-01  3141   0.896E-01    0.292E+01
RMM:  69    -0.887255632524E+03   -0.12297E+00   -0.27286E-01  3228   0.580E-01    0.290E+01
RMM:  70    -0.887376539329E+03   -0.12091E+00   -0.30639E-01  3182   0.688E-01    0.274E+01
RMM:  71    -0.888217643960E+03   -0.84110E+00   -0.15907E+00  3207   0.167E+00    0.241E+01
RMM:  72    -0.888513751440E+03   -0.29611E+00   -0.13973E+00  3150   0.158E+00    0.227E+01
RMM:  73    -0.887510774179E+03    0.10030E+01   -0.20737E+00  3141   0.205E+00    0.218E+01
RMM:  74    -0.885775144763E+03    0.17356E+01   -0.23515E+00  3265   0.169E+00    0.238E+01
RMM:  75    -0.885737409066E+03    0.37736E-01   -0.31278E-01  3084   0.753E-01    0.237E+01
RMM:  76    -0.883833767744E+03    0.19036E+01   -0.11846E+00  3164   0.159E+00    0.231E+01
RMM:  77    -0.884530485629E+03   -0.69672E+00   -0.34528E-01  3148   0.866E-01    0.231E+01
RMM:  78    -0.884556643669E+03   -0.26158E-01   -0.10056E-01  3277   0.389E-01    0.231E+01
RMM:  79    -0.885166039026E+03   -0.60940E+00   -0.28945E-01  3151   0.791E-01    0.242E+01
RMM:  80    -0.885377307201E+03   -0.21127E+00   -0.87315E-02  3175   0.387E-01    0.241E+01
RMM:  81    -0.884664010320E+03    0.71330E+00   -0.52416E+00  3236   0.280E+00    0.211E+01
RMM:  82    -0.885738302092E+03   -0.10743E+01   -0.10131E+00  3175   0.147E+00    0.174E+01
RMM:  83    -0.886619513200E+03   -0.88121E+00   -0.95342E-01  3210   0.125E+00    0.155E+01
RMM:  84    -0.888440039789E+03   -0.18205E+01   -0.15472E+00  3211   0.162E+00    0.146E+01
RMM:  85    -0.888624188674E+03   -0.18415E+00   -0.62615E-01  3258   0.917E-01    0.132E+01
RMM:  86    -0.889288815045E+03   -0.66463E+00   -0.28404E+00  3119   0.227E+00    0.110E+01
RMM:  87    -0.889378852591E+03   -0.90038E-01   -0.15156E+00  3207   0.145E+00    0.102E+01
RMM:  88    -0.889962043938E+03   -0.58319E+00   -0.60307E-01  3213   0.918E-01    0.102E+01
RMM:  89    -0.890288003409E+03   -0.32596E+00   -0.47682E-01  3247   0.773E-01    0.106E+01
RMM:  90    -0.890174258842E+03    0.11374E+00   -0.91464E-02  3238   0.367E-01    0.104E+01
RMM:  91    -0.889269293401E+03    0.90497E+00   -0.13993E+00  3128   0.159E+00    0.117E+01
RMM:  92    -0.889076792551E+03    0.19250E+00   -0.28132E-01  3245   0.560E-01    0.104E+01
RMM:  93    -0.889014500536E+03    0.62292E-01   -0.62671E-02  3153   0.298E-01    0.104E+01
RMM:  94    -0.888717093762E+03    0.29741E+00   -0.30762E-01  3196   0.617E-01    0.999E+00
RMM:  95    -0.888710104000E+03    0.69898E-02   -0.94617E-02  3200   0.286E-01    0.101E+01
RMM:  96    -0.888566163530E+03    0.14394E+00   -0.11069E+00  3205   0.126E+00    0.942E+00
RMM:  97    -0.888535498210E+03    0.30665E-01   -0.42132E-01  3228   0.720E-01    0.885E+00
RMM:  98    -0.888572718995E+03   -0.37221E-01   -0.45241E-01  3220   0.781E-01    0.867E+00
RMM:  99    -0.888816275421E+03   -0.24356E+00   -0.49339E-01  3237   0.740E-01    0.104E+01
RMM: 100    -0.888707775489E+03    0.10850E+00   -0.15064E-01  3131   0.469E-01
   1 F= -.90960177E+03 E0= -.90959319E+03  d E =-.909602E+03  mag=     2.8995
       N       E                     dE             d eps       ncg     rms          rms(c)
DAV:   1    -0.890075658445E+03   -0.12594E+01   -0.10203E+02  2944   0.102E+01    0.107E+01
RMM:   2    -0.931255306854E+03   -0.41180E+02   -0.39601E+01  3248   0.696E+00    0.116E+02
RMM:   3    -0.889654700790E+03    0.41601E+02   -0.44304E+00  2793   0.417E+00    0.127E+01
RMM:   4    -0.889938994163E+03   -0.28429E+00   -0.29442E+00  3212   0.212E+00    0.115E+01
RMM:   5    -0.889917066440E+03    0.21928E-01   -0.69955E-01  3207   0.105E+00    0.783E+00
RMM:   6    -0.890111577659E+03   -0.19451E+00   -0.14715E+00  3139   0.145E+00    0.112E+01
RMM:   7    -0.889959491955E+03    0.15209E+00   -0.54609E-01  3202   0.827E-01    0.703E+00
RMM:   8    -0.890019417883E+03   -0.59926E-01   -0.31938E-01  3020   0.846E-01    0.862E+00
RMM:   9    -0.890119117115E+03   -0.99699E-01   -0.46618E-01  3240   0.683E-01    0.839E+00
RMM:  10    -0.890286987917E+03   -0.16787E+00   -0.21320E-01  3224   0.445E-01    0.804E+00
RMM:  11    -0.890485779478E+03   -0.19879E+00   -0.73720E-01  3070   0.996E-01    0.507E+00
RMM:  12    -0.890501491245E+03   -0.15712E-01   -0.26539E-01  3242   0.392E-01    0.459E+00
RMM:  13    -0.890508353886E+03   -0.68626E-02   -0.88177E-02  3211   0.304E-01    0.328E+00
RMM:  14    -0.890607087314E+03   -0.98733E-01   -0.19925E-01  3258   0.414E-01    0.770E+00
RMM:  15    -0.890547004454E+03    0.60083E-01   -0.34260E-02  3102   0.260E-01    0.735E+00
RMM:  16    -0.890511045471E+03    0.35959E-01   -0.22587E-01  3084   0.547E-01    0.281E+00
RMM:  17    -0.890575706765E+03   -0.64661E-01   -0.31413E-02  2786   0.274E-01    0.266E+00
RMM:  18    -0.890568473295E+03    0.72335E-02   -0.18962E-02  2781   0.183E-01    0.231E+00
RMM:  19    -0.890571923259E+03   -0.34500E-02   -0.70100E-03  2772   0.785E-02    0.189E+00
RMM:  20    -0.890584102052E+03   -0.12179E-01   -0.12174E-02  2912   0.127E-01    0.144E+00
RMM:  21    -0.890594072796E+03   -0.99707E-02   -0.16804E-02  2866   0.108E-01    0.128E+00
RMM:  22    -0.890600509881E+03   -0.64371E-02   -0.86655E-03  2556   0.747E-02    0.138E+00
RMM:  23    -0.890600251667E+03    0.25821E-03   -0.17103E-03  1836   0.387E-02    0.139E+00
RMM:  24    -0.890600081701E+03    0.16997E-03   -0.40015E-04  1537   0.323E-02    0.138E+00
RMM:  25    -0.890600158589E+03   -0.76888E-04   -0.28072E-04  1515   0.260E-02
   2 F= -.91149736E+03 E0= -.91148819E+03  d E =-.189559E+01  mag=     1.3879
       N       E                     dE             d eps       ncg     rms          rms(c)
DAV:   1    -0.890607519974E+03   -0.74383E-02   -0.13240E-01  2480   0.354E-01    0.147E+00
RMM:   2    -0.890742253682E+03   -0.13473E+00   -0.35507E-01  3174   0.669E-01    0.828E+00
RMM:   3    -0.890545284625E+03    0.19697E+00   -0.75673E-02  2791   0.503E-01    0.358E+00
RMM:   4    -0.890564842925E+03   -0.19558E-01   -0.38008E-02  2944   0.161E-01    0.111E+00
RMM:   5    -0.890594914086E+03   -0.30071E-01   -0.60146E-03  2313   0.143E-01    0.125E+00
RMM:   6    -0.890594241660E+03    0.67243E-03   -0.16041E-02  2983   0.134E-01    0.677E-01
RMM:   7    -0.890606407625E+03   -0.12166E-01   -0.23360E-02  3083   0.144E-01    0.228E+00
RMM:   8    -0.890595062867E+03    0.11345E-01   -0.33393E-02  2496   0.134E-01    0.125E+00
RMM:   9    -0.890601515294E+03   -0.64524E-02   -0.15736E-02  2623   0.893E-02    0.149E+00
RMM:  10    -0.890601202955E+03    0.31234E-03   -0.19469E-02  2832   0.902E-02    0.110E+00
RMM:  11    -0.890606006923E+03   -0.48040E-02   -0.24605E-02  2501   0.905E-02    0.696E-01
RMM:  12    -0.890611039627E+03   -0.50327E-02   -0.28586E-02  2609   0.104E-01    0.661E-01
RMM:  13    -0.890611717515E+03   -0.67789E-03   -0.10041E-02  2079   0.548E-02    0.437E-01
RMM:  14    -0.890613461789E+03   -0.17443E-02   -0.12947E-02  2415   0.758E-02    0.132E-01
RMM:  15    -0.890615108986E+03   -0.16472E-02   -0.71342E-03  2194   0.631E-02    0.162E-01
RMM:  16    -0.890615426324E+03   -0.31734E-03   -0.19980E-03  1718   0.404E-02    0.153E-01
RMM:  17    -0.890615399588E+03    0.26736E-04   -0.42539E-04  1496   0.300E-02
   3 F= -.91151271E+03 E0= -.91150120E+03  d E =-.191094E+01  mag=     1.4777
       N       E                     dE             d eps       ncg     rms          rms(c)
DAV:   1    -0.890625844150E+03   -0.10418E-01   -0.52910E-01  2880   0.711E-01    0.279E-01
RMM:   2    -0.890628029700E+03   -0.21855E-02   -0.19171E-02  2973   0.180E-01    0.929E-01
RMM:   3    -0.890624992644E+03    0.30371E-02   -0.32220E-03  2414   0.734E-02    0.224E-01
RMM:   4    -0.890627277295E+03   -0.22847E-02   -0.11627E-03  1878   0.517E-02    0.354E-01
RMM:   5    -0.890627210282E+03    0.67013E-04   -0.46039E-04  1556   0.340E-02
   4 F= -.91152475E+03 E0= -.91151271E+03  d E =-.192298E+01  mag=     1.4560
       N       E                     dE             d eps       ncg     rms          rms(c)
DAV:   1    -0.890630735507E+03   -0.34582E-02   -0.20932E+00  2752   0.141E+00    0.746E-01
RMM:   2    -0.890664611963E+03   -0.33876E-01   -0.88189E-02  3041   0.368E-01    0.566E+00
RMM:   3    -0.890602880670E+03    0.61731E-01   -0.20315E-02  2901   0.226E-01    0.121E+00
RMM:   4    -0.890628295158E+03   -0.25414E-01   -0.93138E-03  2861   0.101E-01    0.397E-01
RMM:   5    -0.890635827182E+03   -0.75320E-02   -0.26192E-03  2384   0.700E-02    0.375E-01
RMM:   6    -0.890637322110E+03   -0.14949E-02   -0.55604E-03  2446   0.927E-02    0.676E-01
RMM:   7    -0.890636515980E+03    0.80613E-03   -0.18239E-03  1865   0.567E-02    0.189E-01
RMM:   8    -0.890637430143E+03   -0.91416E-03   -0.59515E-04  1649   0.400E-02    0.278E-01
RMM:   9    -0.890637286211E+03    0.14393E-03   -0.44815E-04  1542   0.322E-02    0.108E-01
RMM:  10    -0.890637554481E+03   -0.26827E-03   -0.38270E-04  1503   0.303E-02    0.125E-01
RMM:  11    -0.890637623061E+03   -0.68580E-04   -0.49982E-04  1450   0.243E-02
   5 F= -.91153562E+03 E0= -.91152327E+03  d E =-.193385E+01  mag=     1.4148
       N       E                     dE             d eps       ncg     rms          rms(c)
DAV:   1    -0.890995505226E+03   -0.35795E+00   -0.24722E+01  2496   0.427E+00    0.214E+00
RMM:   2    -0.891111541145E+03   -0.11604E+00   -0.86044E-01  3040   0.110E+00    0.407E+00
RMM:   3    -0.891047697312E+03    0.63844E-01   -0.11918E-01  2916   0.504E-01    0.138E+00
RMM:   4    -0.891061600612E+03   -0.13903E-01   -0.34584E-02  3248   0.160E-01    0.190E+00
RMM:   5    -0.891078714711E+03   -0.17114E-01   -0.36615E-02  2927   0.231E-01    0.338E+00
RMM:   6    -0.891061637244E+03    0.17077E-01   -0.10502E-02  2913   0.143E-01    0.286E+00
RMM:   7    -0.891047577471E+03    0.14060E-01   -0.15825E-02  2799   0.143E-01    0.129E+00
RMM:   8    -0.891063958151E+03   -0.16381E-01   -0.75628E-03  2387   0.154E-01    0.201E+00
RMM:   9    -0.891054734980E+03    0.92232E-02   -0.31466E-03  2181   0.869E-02    0.382E-01
RMM:  10    -0.891058939900E+03   -0.42049E-02   -0.12364E-03  1931   0.458E-02    0.107E-01
RMM:  11    -0.891060093296E+03   -0.11534E-02   -0.60628E-04  1595   0.400E-02    0.628E-02
RMM:  12    -0.891060385977E+03   -0.29268E-03   -0.80577E-04  1502   0.318E-02    0.106E-01
RMM:  13    -0.891060481450E+03   -0.95473E-04   -0.47101E-04  1492   0.279E-02
   6 F= -.91195601E+03 E0= -.91194323E+03  d E =-.420396E+00  mag=     1.3317
       N       E                     dE             d eps       ncg     rms          rms(c)
DAV:   1    -0.891271662622E+03   -0.21128E+00   -0.81357E+01  2432   0.788E+00    0.338E+00
RMM:   2    -0.891757668155E+03   -0.48601E+00   -0.27244E+00  3094   0.198E+00    0.844E+00
RMM:   3    -0.891504232579E+03    0.25344E+00   -0.32808E-01  2911   0.891E-01    0.681E+00
RMM:   4    -0.891532065838E+03   -0.27833E-01   -0.48539E-01  3219   0.700E-01    0.454E+00
RMM:   5    -0.891519538863E+03    0.12527E-01   -0.53919E-02  3193   0.306E-01    0.423E+00
RMM:   6    -0.891467961382E+03    0.51577E-01   -0.48092E-02  3334   0.203E-01    0.312E+00
RMM:   7    -0.891468093198E+03   -0.13182E-03   -0.53536E-02  3309   0.191E-01    0.311E+00
RMM:   8    -0.891468036338E+03    0.56861E-04   -0.15711E-02  2625   0.214E-01    0.385E-01
RMM:   9    -0.891474040855E+03   -0.60045E-02   -0.48379E-03  2728   0.102E-01    0.154E+00
RMM:  10    -0.891470411910E+03    0.36289E-02   -0.30024E-03  2601   0.623E-02    0.674E-01
RMM:  11    -0.891471717075E+03   -0.13052E-02   -0.13617E-03  1967   0.459E-02    0.473E-01
RMM:  12    -0.891472429625E+03   -0.71255E-03   -0.97594E-04  1851   0.437E-02    0.199E-01
RMM:  13    -0.891473157688E+03   -0.72806E-03   -0.12416E-03  1668   0.394E-02    0.608E-02
RMM:  14    -0.891473495439E+03   -0.33775E-03   -0.55514E-04  1577   0.386E-02    0.201E-01
RMM:  15    -0.891473534232E+03   -0.38793E-04   -0.57777E-04  1473   0.338E-02
   7 F= -.91236468E+03 E0= -.91235118E+03  d E =-.829063E+00  mag=     1.2097
       N       E                     dE             d eps       ncg     rms          rms(c)
DAV:   1    -0.891481962292E+03   -0.84669E-02   -0.52615E+00  2704   0.202E+00    0.150E+00
RMM:   2    -0.891609816700E+03   -0.12785E+00   -0.28022E-01  3000   0.709E-01    0.701E+00
RMM:   3    -0.891470696507E+03    0.13912E+00   -0.64276E-02  2776   0.441E-01    0.313E+00
RMM:   4    -0.891487313206E+03   -0.16617E-01   -0.52715E-02  3127   0.223E-01    0.292E+00
RMM:   5    -0.891488930854E+03   -0.16176E-02   -0.59118E-03  2566   0.150E-01    0.170E+00
RMM:   6    -0.891485414404E+03    0.35164E-02   -0.36533E-03  2529   0.781E-02    0.439E-01
RMM:   7    -0.891490333683E+03   -0.49193E-02   -0.53294E-03  2372   0.990E-02    0.196E-01
RMM:   8    -0.891492018168E+03   -0.16845E-02   -0.20221E-03  2015   0.608E-02    0.117E+00
RMM:   9    -0.891489304725E+03    0.27134E-02   -0.83097E-04  1830   0.540E-02    0.270E-01
RMM:  10    -0.891490690454E+03   -0.13857E-02   -0.83002E-04  1646   0.393E-02    0.111E-01
RMM:  11    -0.891491211078E+03   -0.52062E-03   -0.63033E-04  1513   0.324E-02    0.417E-02
RMM:  12    -0.891491296337E+03   -0.85259E-04   -0.31948E-04  1446   0.266E-02
   8 F= -.91238135E+03 E0= -.91236754E+03  d E =-.845736E+00  mag=     1.1790
       N       E                     dE             d eps       ncg     rms          rms(c)
DAV:   1    -0.891559366129E+03   -0.68155E-01   -0.44501E+01  2400   0.574E+00    0.413E+00
RMM:   2    -0.892015649310E+03   -0.45628E+00   -0.23754E+00  3060   0.202E+00    0.871E+00
RMM:   3    -0.891718909931E+03    0.29674E+00   -0.31822E-01  2845   0.973E-01    0.690E+00
RMM:   4    -0.891666745011E+03    0.52165E-01   -0.40998E-01  3129   0.678E-01    0.446E+00
RMM:   5    -0.891652664196E+03    0.14081E-01   -0.40855E-02  2989   0.304E-01    0.354E+00
RMM:   6    -0.891625741877E+03    0.26922E-01   -0.32418E-02  3282   0.176E-01    0.164E+00
RMM:   7    -0.891631257886E+03   -0.55160E-02   -0.24686E-02  3242   0.128E-01    0.901E-01
RMM:   8    -0.891639483167E+03   -0.82253E-02   -0.61168E-03  2882   0.105E-01    0.182E+00
RMM:   9    -0.891634034940E+03    0.54482E-02   -0.21428E-03  2384   0.736E-02    0.969E-01
RMM:  10    -0.891634642434E+03   -0.60749E-03   -0.14437E-03  2155   0.440E-02    0.431E-01
RMM:  11    -0.891636069078E+03   -0.14266E-02   -0.10549E-03  1784   0.438E-02    0.243E-01
RMM:  12    -0.891636800516E+03   -0.73144E-03   -0.84358E-04  1638   0.404E-02    0.435E-02
RMM:  13    -0.891637147361E+03   -0.34685E-03   -0.68616E-04  1517   0.349E-02    0.393E-02
RMM:  14    -0.891637303565E+03   -0.15620E-03   -0.61350E-04  1490   0.318E-02    0.206E-01
RMM:  15    -0.891637221002E+03    0.82563E-04   -0.20141E-04  1431   0.281E-02
   9 F= -.91252304E+03 E0= -.91250948E+03  d E =-.141690E+00  mag=     1.1882
       N       E                     dE             d eps       ncg     rms          rms(c)
DAV:   1    -0.891642648850E+03   -0.53453E-02   -0.15944E+00  2752   0.106E+00    0.109E+00
RMM:   2    -0.891702829715E+03   -0.60181E-01   -0.13971E-01  2949   0.493E-01    0.480E+00
RMM:   3    -0.891634738682E+03    0.68091E-01   -0.35018E-02  2692   0.328E-01    0.173E+00
RMM:   4    -0.891642339238E+03   -0.76006E-02   -0.20369E-02  2761   0.136E-01    0.181E+00
RMM:   5    -0.891643660526E+03   -0.13213E-02   -0.26088E-03  2118   0.105E-01    0.509E-01
RMM:   6    -0.891644403460E+03   -0.74293E-03   -0.10030E-03  1819   0.483E-02    0.225E-01
RMM:   7    -0.891645549547E+03   -0.11461E-02   -0.24981E-03  2109   0.558E-02    0.457E-01
RMM:   8    -0.891645422716E+03    0.12683E-03   -0.99351E-04  1615   0.430E-02    0.543E-02
RMM:   9    -0.891645896017E+03   -0.47330E-03   -0.39685E-04  1500   0.232E-02    0.119E-01
RMM:  10    -0.891645920267E+03   -0.24250E-04   -0.26647E-04  1410   0.227E-02
  10 F= -.91253254E+03 E0= -.91251886E+03  d E =-.151184E+00  mag=     1.1801
       N       E                     dE             d eps       ncg     rms          rms(c)
DAV:   1    -0.891687879394E+03   -0.41983E-01   -0.75073E+00  2432   0.247E+00    0.185E+00
RMM:   2    -0.891837637756E+03   -0.14976E+00   -0.43019E-01  2943   0.981E-01    0.718E+00
RMM:   3    -0.891679095392E+03    0.15854E+00   -0.90941E-02  2790   0.526E-01    0.214E+00
RMM:   4    -0.891703464654E+03   -0.24369E-01   -0.46461E-02  3160   0.199E-01    0.285E+00
RMM:   5    -0.891698201453E+03    0.52632E-02   -0.64508E-03  2504   0.157E-01    0.127E+00
RMM:   6    -0.891698281833E+03   -0.80380E-04   -0.56899E-03  2734   0.865E-02    0.579E-01
RMM:   7    -0.891700770098E+03   -0.24883E-02   -0.35269E-03  2375   0.595E-02    0.393E-01
RMM:   8    -0.891701542099E+03   -0.77200E-03   -0.11284E-03  1767   0.495E-02    0.187E-01
RMM:   9    -0.891701932373E+03   -0.39027E-03   -0.78306E-04  1735   0.359E-02    0.262E-01
RMM:  10    -0.891701936188E+03   -0.38140E-05   -0.70942E-04  1599   0.389E-02
  11 F= -.91258714E+03 E0= -.91257355E+03  d E =-.546026E-01  mag=     1.2288
       N       E                     dE             d eps       ncg     rms          rms(c)
DAV:   1    -0.891708799127E+03   -0.68668E-02   -0.16159E+00  2496   0.114E+00    0.102E+00
RMM:   2    -0.891768405931E+03   -0.59607E-01   -0.11781E-01  2983   0.475E-01    0.645E+00
RMM:   3    -0.891687366910E+03    0.81039E-01   -0.36342E-02  2752   0.332E-01    0.454E-01
RMM:   4    -0.891711236455E+03   -0.23870E-01   -0.11749E-02  2916   0.116E-01    0.137E+00
RMM:   5    -0.891710430456E+03    0.80600E-03   -0.22297E-03  2267   0.953E-02    0.293E-01
RMM:   6    -0.891711888348E+03   -0.14579E-02   -0.16717E-03  2120   0.626E-02    0.423E-01
RMM:   7    -0.891711667088E+03    0.22126E-03   -0.13650E-03  1867   0.402E-02    0.235E-01
RMM:   8    -0.891711906545E+03   -0.23946E-03   -0.49734E-04  1551   0.404E-02    0.698E-02
RMM:   9    -0.891712225368E+03   -0.31882E-03   -0.44398E-04  1466   0.273E-02    0.213E-01
RMM:  10    -0.891712136078E+03    0.89290E-04   -0.23990E-04  1445   0.310E-02
  12 F= -.91259668E+03 E0= -.91258331E+03  d E =-.641476E-01  mag=     1.2555
       N       E                     dE             d eps       ncg     rms          rms(c)
DAV:   1    -0.891712914145E+03   -0.68878E-03   -0.15228E-01  2752   0.354E-01    0.476E-01
RMM:   2    -0.891729234045E+03   -0.16320E-01   -0.22025E-02  2903   0.195E-01    0.422E+00
RMM:   3    -0.891700637042E+03    0.28597E-01   -0.95942E-03  2483   0.177E-01    0.235E-01
RMM:   4    -0.891712226462E+03   -0.11589E-01   -0.29621E-03  2216   0.773E-02    0.616E-01
RMM:   5    -0.891712913322E+03   -0.68686E-03   -0.53539E-04  1751   0.553E-02    0.218E-01
RMM:   6    -0.891713161461E+03   -0.24814E-03   -0.47954E-04  1486   0.356E-02    0.340E-01
RMM:   7    -0.891713246637E+03   -0.85176E-04   -0.51711E-04  1548   0.360E-02
  13 F= -.91259759E+03 E0= -.91258442E+03  d E =-.650577E-01  mag=     1.2642
       N       E                     dE             d eps       ncg     rms          rms(c)
DAV:   1    -0.891734508663E+03   -0.21347E-01   -0.43605E+00  2400   0.206E+00    0.151E+00
RMM:   2    -0.891849195888E+03   -0.11469E+00   -0.27392E-01  2908   0.821E-01    0.728E+00
RMM:   3    -0.891715876771E+03    0.13332E+00   -0.67699E-02  2785   0.452E-01    0.948E-01
RMM:   4    -0.891740807857E+03   -0.24931E-01   -0.20700E-02  3101   0.138E-01    0.113E+00
RMM:   5    -0.891745834797E+03   -0.50269E-02   -0.44652E-03  2469   0.116E-01    0.171E+00
RMM:   6    -0.891741453577E+03    0.43812E-02   -0.35456E-03  2463   0.980E-02    0.354E-01
RMM:   7    -0.891744081406E+03   -0.26278E-02   -0.53172E-03  2622   0.690E-02    0.393E-01
RMM:   8    -0.891744364954E+03   -0.28355E-03   -0.10464E-03  1924   0.583E-02    0.541E-01
RMM:   9    -0.891744406387E+03   -0.41433E-04   -0.22578E-03  2197   0.532E-02    0.761E-01
RMM:  10    -0.891743649019E+03    0.75737E-03   -0.40578E-04  1557   0.375E-02    0.470E-01
RMM:  11    -0.891743897596E+03   -0.24858E-03   -0.46250E-04  1582   0.330E-02    0.185E-01
RMM:  12    -0.891744339090E+03   -0.44149E-03   -0.45094E-04  1605   0.341E-02    0.117E-01
RMM:  13    -0.891744601778E+03   -0.26269E-03   -0.38259E-04  1462   0.320E-02    0.822E-02
RMM:  14    -0.891744643711E+03   -0.41933E-04   -0.25458E-04  1424   0.256E-02
  14 F= -.91262956E+03 E0= -.91261661E+03  d E =-.319670E-01  mag=     1.3176
       N       E                     dE             d eps       ncg     rms          rms(c)
DAV:   1    -0.891752757840E+03   -0.81561E-02   -0.36456E+00  2368   0.188E+00    0.138E+00
RMM:   2    -0.891851315160E+03   -0.98557E-01   -0.22704E-01  2942   0.728E-01    0.737E+00
RMM:   3    -0.891730880672E+03    0.12043E+00   -0.60027E-02  2797   0.425E-01    0.589E-01
RMM:   4    -0.891758843840E+03   -0.27963E-01   -0.17719E-02  3042   0.136E-01    0.108E+00
RMM:   5    -0.891761656755E+03   -0.28129E-02   -0.36706E-03  2464   0.106E-01    0.140E+00
RMM:   6    -0.891758792864E+03    0.28639E-02   -0.33777E-03  2446   0.932E-02    0.327E-01
RMM:   7    -0.891761006657E+03   -0.22138E-02   -0.41434E-03  2545   0.633E-02    0.395E-01
RMM:   8    -0.891760871570E+03    0.13509E-03   -0.75110E-04  1791   0.504E-02    0.490E-01
RMM:   9    -0.891760780801E+03    0.90769E-04   -0.20300E-03  2153   0.525E-02    0.491E-01
RMM:  10    -0.891760535381E+03    0.24542E-03   -0.34358E-04  1534   0.359E-02    0.171E-01
RMM:  11    -0.891760906815E+03   -0.37143E-03   -0.24947E-04  1480   0.297E-02    0.225E-01
RMM:  12    -0.891760957728E+03   -0.50914E-04   -0.31991E-04  1524   0.322E-02
  15 F= -.91264640E+03 E0= -.91263366E+03  d E =-.488017E-01  mag=     1.3669
       N       E                     dE             d eps       ncg     rms          rms(c)
DAV:   1    -0.891726149441E+03    0.34757E-01   -0.14579E+01  2368   0.377E+00    0.225E+00
RMM:   2    -0.891925842863E+03   -0.19969E+00   -0.69276E-01  2956   0.130E+00    0.830E+00
RMM:   3    -0.891724640367E+03    0.20120E+00   -0.14943E-01  2858   0.664E-01    0.127E+00
RMM:   4    -0.891755790875E+03   -0.31151E-01   -0.51374E-02  3328   0.197E-01    0.146E+00
RMM:   5    -0.891768523947E+03   -0.12733E-01   -0.13616E-02  2893   0.175E-01    0.350E+00
RMM:   6    -0.891750626323E+03    0.17898E-01   -0.16081E-02  2920   0.185E-01    0.788E-01
RMM:   7    -0.891760245700E+03   -0.96194E-02   -0.17126E-02  3006   0.123E-01    0.943E-01
RMM:   8    -0.891759292737E+03    0.95296E-03   -0.31576E-03  2456   0.896E-02    0.103E+00
RMM:   9    -0.891760078272E+03   -0.78553E-03   -0.93842E-03  2676   0.906E-02    0.139E+00
RMM:  10    -0.891756913362E+03    0.31649E-02   -0.10894E-03  2006   0.514E-02    0.780E-01
RMM:  11    -0.891758023790E+03   -0.11104E-02   -0.18062E-03  2321   0.555E-02    0.216E-01
RMM:  12    -0.891759445692E+03   -0.14219E-02   -0.61199E-04  1774   0.472E-02    0.754E-02
RMM:  13    -0.891759471470E+03   -0.25779E-04   -0.38514E-04  1577   0.393E-02
  16 F= -.91264604E+03 E0= -.91263451E+03  d E =-.484444E-01  mag=     1.4615
       N       E                     dE             d eps       ncg     rms          rms(c)
DAV:   1    -0.891756243119E+03    0.32026E-02   -0.45744E+00  2496   0.212E+00    0.138E+00
RMM:   2    -0.891814820897E+03   -0.58578E-01   -0.24468E-01  2942   0.755E-01    0.360E+00
RMM:   3    -0.891761832287E+03    0.52989E-01   -0.45995E-02  2770   0.370E-01    0.178E+00
RMM:   4    -0.891761089491E+03    0.74280E-03   -0.16463E-02  2787   0.112E-01    0.624E-01
RMM:   5    -0.891766810737E+03   -0.57212E-02   -0.16115E-03  2172   0.651E-02    0.131E+00
RMM:   6    -0.891764194988E+03    0.26157E-02   -0.72789E-03  2516   0.110E-01    0.486E-01
RMM:   7    -0.891766625780E+03   -0.24308E-02   -0.57295E-03  2506   0.761E-02    0.335E-01
RMM:   8    -0.891766810148E+03   -0.18437E-03   -0.91964E-04  1859   0.471E-02    0.906E-01
RMM:   9    -0.891765297480E+03    0.15127E-02   -0.41108E-03  2335   0.748E-02    0.406E-01
RMM:  10    -0.891765747812E+03   -0.45033E-03   -0.36725E-04  1577   0.346E-02    0.804E-02
RMM:  11    -0.891766406666E+03   -0.65885E-03   -0.33113E-04  1584   0.307E-02    0.330E-01
RMM:  12    -0.891766197055E+03    0.20961E-03   -0.17351E-04  1435   0.310E-02    0.103E-01
RMM:  13    -0.891766403637E+03   -0.20658E-03   -0.99449E-05  1396   0.174E-02    0.771E-02
RMM:  14    -0.891766422997E+03   -0.19361E-04   -0.95634E-05  1371   0.162E-02
  17 F= -.91265237E+03 E0= -.91264008E+03  d E =-.547713E-01  mag=     1.4254
       N       E                     dE             d eps       ncg     rms          rms(c)
DAV:   1    -0.891769913990E+03   -0.35104E-02   -0.36581E+00  2432   0.206E+00    0.160E+00
RMM:   2    -0.891891602010E+03   -0.12169E+00   -0.29153E-01  2962   0.816E-01    0.808E+00
RMM:   3    -0.891744699889E+03    0.14690E+00   -0.72506E-02  2809   0.480E-01    0.709E-01
RMM:   4    -0.891776550238E+03   -0.31850E-01   -0.20680E-02  2902   0.149E-01    0.838E-01
RMM:   5    -0.891782038789E+03   -0.54886E-02   -0.40341E-03  2422   0.110E-01    0.198E+00
RMM:   6    -0.891775927977E+03    0.61108E-02   -0.80938E-03  2568   0.133E-01    0.919E-01
RMM:   7    -0.891778042798E+03   -0.21148E-02   -0.41862E-03  2496   0.831E-02    0.568E-01
RMM:   8    -0.891778016162E+03    0.26636E-04   -0.91393E-04  1890   0.513E-02
  18 F= -.91266463E+03 E0= -.91265431E+03  d E =-.122678E-01  mag=     1.4744
       N       E                     dE             d eps       ncg     rms          rms(c)
DAV:   1    -0.891778281924E+03   -0.23913E-03   -0.71577E-02  2896   0.298E-01    0.194E-01
RMM:   2    -0.891781349630E+03   -0.30677E-02   -0.51649E-03  2635   0.103E-01    0.139E+00
RMM:   3    -0.891777088392E+03    0.42612E-02   -0.12759E-03  1993   0.691E-02    0.349E-01
RMM:   4    -0.891778458672E+03   -0.13703E-02   -0.56058E-04  1763   0.348E-02    0.970E-02
RMM:   5    -0.891778952959E+03   -0.49429E-03   -0.14479E-04  1392   0.305E-02    0.547E-02
RMM:   6    -0.891779138707E+03   -0.18575E-03   -0.16475E-04  1326   0.253E-02    0.391E-01
RMM:   7    -0.891778748174E+03    0.39053E-03   -0.45473E-04  1636   0.327E-02    0.122E-01
RMM:   8    -0.891779018524E+03   -0.27035E-03   -0.13879E-04  1354   0.262E-02    0.481E-02
RMM:   9    -0.891779026729E+03   -0.82046E-05   -0.55450E-05  1256   0.140E-02
  19 F= -.91266555E+03 E0= -.91265417E+03  d E =-.131840E-01  mag=     1.4781
       N       E                     dE             d eps       ncg     rms          rms(c)
DAV:   1    -0.891787191179E+03   -0.81727E-02   -0.17854E+00  2432   0.157E+00    0.135E+00
RMM:   2    -0.891871940373E+03   -0.84749E-01   -0.18003E-01  2956   0.660E-01    0.788E+00
RMM:   3    -0.891757358983E+03    0.11458E+00   -0.53299E-02  2793   0.414E-01    0.722E-01
RMM:   4    -0.891791009901E+03   -0.33651E-01   -0.13491E-02  2810   0.138E-01    0.108E+00
RMM:   5    -0.891790718696E+03    0.29121E-03   -0.26387E-03  2400   0.960E-02    0.807E-01
RMM:   6    -0.891790613522E+03    0.10517E-03   -0.17840E-03  2382   0.650E-02    0.280E-01
RMM:   7    -0.891790885484E+03   -0.27196E-03   -0.69255E-04  1884   0.378E-02    0.140E-01
RMM:   8    -0.891791178036E+03   -0.29255E-03   -0.56318E-04  1674   0.486E-02    0.120E-01
RMM:   9    -0.891791166207E+03    0.11828E-04   -0.35493E-04  1567   0.313E-02
  20 F= -.91267812E+03 E0= -.91266747E+03  d E =-.125720E-01  mag=     1.5369
       N       E                     dE             d eps       ncg     rms          rms(c)
DAV:   1    -0.891770160531E+03    0.21018E-01   -0.16074E+01  2368   0.472E+00    0.235E+00
RMM:   2    -0.891915666796E+03   -0.14551E+00   -0.79286E-01  2954   0.155E+00    0.895E+00
RMM:   3    -0.891779533753E+03    0.13613E+00   -0.15500E-01  2910   0.692E-01    0.198E+00
RMM:   4    -0.891821599378E+03   -0.42066E-01   -0.45878E-02  3337   0.228E-01    0.183E+00
RMM:   5    -0.891813570359E+03    0.80290E-02   -0.27184E-02  3168   0.204E-01    0.153E+00
RMM:   6    -0.891813902403E+03   -0.33204E-03   -0.16146E-02  3286   0.141E-01    0.460E-01
RMM:   7    -0.891815598288E+03   -0.16959E-02   -0.47528E-03  2779   0.103E-01    0.204E-01
RMM:   8    -0.891815914428E+03   -0.31614E-03   -0.59445E-03  3050   0.803E-02    0.276E-01
RMM:   9    -0.891815994272E+03   -0.79844E-04   -0.15723E-03  2402   0.476E-02    0.974E-02
RMM:  10    -0.891816246696E+03   -0.25242E-03   -0.10379E-03  1932   0.451E-02    0.155E-01
RMM:  11    -0.891816283209E+03   -0.36513E-04   -0.49320E-04  1714   0.362E-02
  21 F= -.91270455E+03 E0= -.91269669E+03  d E =-.390000E-01  mag=     1.7187
       N       E                     dE             d eps       ncg     rms          rms(c)
DAV:   1    -0.891593467286E+03    0.22278E+00   -0.64271E+01  2368   0.940E+00    0.253E+00
RMM:   2    -0.891770002868E+03   -0.17654E+00   -0.21214E+00  3009   0.259E+00    0.173E+00
RMM:   3    -0.891796407692E+03   -0.26405E-01   -0.37395E-01  3414   0.755E-01    0.146E+00
RMM:   4    -0.891798120654E+03   -0.17130E-02   -0.90557E-02  3373   0.361E-01    0.126E+00
RMM:   5    -0.891804914628E+03   -0.67940E-02   -0.73024E-02  3436   0.275E-01    0.558E-01
RMM:   6    -0.891802799646E+03    0.21150E-02   -0.22047E-02  3349   0.156E-01    0.360E-01
RMM:   7    -0.891802973791E+03   -0.17415E-03   -0.22246E-02  3420   0.156E-01    0.198E-01
RMM:   8    -0.891803607844E+03   -0.63405E-03   -0.70706E-03  3431   0.760E-02    0.160E-01
RMM:   9    -0.891804110609E+03   -0.50277E-03   -0.42177E-03  3250   0.686E-02    0.108E-01
RMM:  10    -0.891804480496E+03   -0.36989E-03   -0.27036E-03  2776   0.493E-02    0.806E-02
RMM:  11    -0.891804592166E+03   -0.11167E-03   -0.10894E-03  1964   0.469E-02    0.547E-02
RMM:  12    -0.891804685127E+03   -0.92962E-04   -0.10125E-03  1894   0.407E-02    0.344E-02
RMM:  13    -0.891804738179E+03   -0.53051E-04   -0.45190E-04  1613   0.394E-02
  22 F= -.91269569E+03 E0= -.91269551E+03  d E =-.301371E-01  mag=     1.9962
       N       E                     dE             d eps       ncg     rms          rms(c)
DAV:   1    -0.891719863944E+03    0.84821E-01   -0.32170E+01  2368   0.662E+00    0.252E+00
RMM:   2    -0.891826181089E+03   -0.10632E+00   -0.12832E+00  3016   0.195E+00    0.187E+00
RMM:   3    -0.891825002313E+03    0.11788E-02   -0.15154E-01  3132   0.582E-01    0.148E+00
RMM:   4    -0.891822300144E+03    0.27022E-02   -0.48368E-02  3403   0.220E-01    0.124E+00
RMM:   5    -0.891824018585E+03   -0.17184E-02   -0.23165E-02  3362   0.166E-01    0.118E+00
RMM:   6    -0.891838484043E+03   -0.14465E-01   -0.61663E-02  3167   0.267E-01    0.386E+00
RMM:   7    -0.891817492478E+03    0.20992E-01   -0.82660E-03  2746   0.170E-01    0.187E+00
RMM:   8    -0.891820442403E+03   -0.29499E-02   -0.74061E-03  3092   0.958E-02    0.202E+00
RMM:   9    -0.891816540960E+03    0.39014E-02   -0.14923E-02  3005   0.128E-01    0.458E-01
RMM:  10    -0.891821221043E+03   -0.46801E-02   -0.16784E-03  2226   0.846E-02    0.372E-01
RMM:  11    -0.891822067156E+03   -0.84611E-03   -0.27973E-03  2552   0.632E-02    0.129E-01
RMM:  12    -0.891822508388E+03   -0.44123E-03   -0.45519E-04  1648   0.478E-02    0.864E-02
RMM:  13    -0.891822514307E+03   -0.59191E-05   -0.47798E-04  1717   0.358E-02
  23 F= -.91271155E+03 E0= -.91270606E+03  d E =-.460047E-01  mag=     1.8277
       N       E                     dE             d eps       ncg     rms          rms(c)
DAV:   1    -0.891829653150E+03   -0.71448E-02   -0.22385E+00  2432   0.167E+00    0.691E-01
RMM:   2    -0.891838259976E+03   -0.86068E-02   -0.87804E-02  2956   0.482E-01    0.166E+00
RMM:   3    -0.891833596470E+03    0.46635E-02   -0.11867E-02  2799   0.191E-01    0.501E-01
RMM:   4    -0.891835882304E+03   -0.22858E-02   -0.37280E-03  2487   0.637E-02    0.437E-01
RMM:   5    -0.891836004894E+03   -0.12259E-03   -0.28572E-03  2372   0.774E-02    0.575E-01
RMM:   6    -0.891835392826E+03    0.61207E-03   -0.14506E-03  2177   0.582E-02    0.927E-02
RMM:   7    -0.891835643576E+03   -0.25075E-03   -0.32028E-04  1536   0.366E-02    0.541E-02
RMM:   8    -0.891835709601E+03   -0.66025E-04   -0.22726E-04  1492   0.294E-02
  24 F= -.91272547E+03 E0= -.91272087E+03  d E =-.139126E-01  mag=     1.8756
       N       E                     dE             d eps       ncg     rms          rms(c)
DAV:   1    -0.891831267552E+03    0.43760E-02   -0.41275E+00  2368   0.226E+00    0.750E-01
RMM:   2    -0.891842511034E+03   -0.11243E-01   -0.13998E-01  2953   0.625E-01    0.562E-01
RMM:   3    -0.891843590894E+03   -0.10799E-02   -0.18091E-02  3135   0.192E-01    0.439E-01
RMM:   4    -0.891843974676E+03   -0.38378E-03   -0.60450E-03  3169   0.788E-02    0.332E-01
RMM:   5    -0.891844336773E+03   -0.36210E-03   -0.49710E-03  2861   0.849E-02    0.274E-01
RMM:   6    -0.891844381278E+03   -0.44505E-04   -0.18221E-03  2452   0.585E-02    0.862E-02
RMM:   7    -0.891844479287E+03   -0.98009E-04   -0.59420E-04  1714   0.353E-02
  25 F= -.91273522E+03 E0= -.91273302E+03  d E =-.236616E-01  mag=     1.9446
       N       E                     dE             d eps       ncg     rms          rms(c)
DAV:   1    -0.891849002969E+03   -0.46217E-02   -0.28465E+00  2400   0.185E+00    0.564E-01
RMM:   2    -0.891856452021E+03   -0.74491E-02   -0.86791E-02  2971   0.472E-01    0.423E-01
RMM:   3    -0.891857249017E+03   -0.79700E-03   -0.12275E-02  3332   0.136E-01    0.351E-01
RMM:   4    -0.891857558611E+03   -0.30959E-03   -0.53258E-03  3016   0.818E-02    0.174E-01
RMM:   5    -0.891857609741E+03   -0.51130E-04   -0.17709E-03  2308   0.618E-02    0.737E-02
RMM:   6    -0.891857640376E+03   -0.30635E-04   -0.93129E-04  1991   0.426E-02
  26 F= -.91274927E+03 E0= -.91274849E+03  d E =-.140575E-01  mag=     1.9854
       N       E                     dE             d eps       ncg     rms          rms(c)
DAV:   1    -0.891858299314E+03   -0.68957E-03   -0.33464E-01  2752   0.636E-01    0.191E-01
RMM:   2    -0.891859284307E+03   -0.98499E-03   -0.10872E-02  2957   0.166E-01    0.153E-01
RMM:   3    -0.891859413253E+03   -0.12895E-03   -0.14799E-03  2301   0.494E-02    0.123E-01
RMM:   4    -0.891859520714E+03   -0.10746E-03   -0.86269E-04  1870   0.462E-02    0.451E-02
RMM:   5    -0.891859570623E+03   -0.49908E-04   -0.37691E-04  1557   0.353E-02
  27 F= -.91275151E+03 E0= -.91275123E+03  d E =-.162961E-01  mag=     1.9951
       N       E                     dE             d eps       ncg     rms          rms(c)
DAV:   1    -0.891854844907E+03    0.46758E-02   -0.13322E+00  2432   0.127E+00    0.375E-01
RMM:   2    -0.891858374869E+03   -0.35300E-02   -0.39359E-02  2996   0.318E-01    0.299E-01
RMM:   3    -0.891858692170E+03   -0.31730E-03   -0.52305E-03  3256   0.915E-02    0.236E-01
RMM:   4    -0.891858809260E+03   -0.11709E-03   -0.25965E-03  2710   0.579E-02    0.805E-02
RMM:   5    -0.891858886300E+03   -0.77040E-04   -0.67589E-04  1724   0.385E-02
  28 F= -.91275145E+03 E0= -.91275143E+03  d E =-.162301E-01  mag=     1.9999
       N       E                     dE             d eps       ncg     rms          rms(c)
DAV:   1    -0.891859065992E+03   -0.25673E-03   -0.46732E-01  2560   0.752E-01    0.219E-01
RMM:   2    -0.891860117526E+03   -0.10515E-02   -0.12510E-02  2870   0.179E-01    0.176E-01
RMM:   3    -0.891860130963E+03   -0.13437E-04   -0.10739E-03  1948   0.522E-02    0.138E-01
RMM:   4    -0.891860182773E+03   -0.51811E-04   -0.98919E-04  1843   0.458E-02
  29 F= -.91275238E+03 E0= -.91275224E+03  d E =-.171596E-01  mag=     1.9975
       N       E                     dE             d eps       ncg     rms          rms(c)
DAV:   1    -0.891862164334E+03   -0.20334E-02   -0.18973E+00  2368   0.163E+00    0.387E-01
RMM:   2    -0.891867094286E+03   -0.49300E-02   -0.56786E-02  2963   0.437E-01    0.317E-01
RMM:   3    -0.891867783819E+03   -0.68953E-03   -0.91024E-03  3312   0.125E-01    0.265E-01
RMM:   4    -0.891867890517E+03   -0.10670E-03   -0.30933E-03  3003   0.682E-02    0.152E-01
RMM:   5    -0.891868030397E+03   -0.13988E-03   -0.11855E-03  2234   0.451E-02    0.582E-02
RMM:   6    -0.891868003312E+03    0.27084E-04   -0.33827E-04  1632   0.375E-02
  30 F= -.91276072E+03 E0= -.91276072E+03  d E =-.834508E-02  mag=     2.0000
       N       E                     dE             d eps       ncg     rms          rms(c)
DAV:   1    -0.891861960037E+03    0.60704E-02   -0.34593E+00  2368   0.221E+00    0.539E-01
RMM:   2    -0.891871333230E+03   -0.93732E-02   -0.10550E-01  2965   0.594E-01    0.447E-01
RMM:   3    -0.891872802644E+03   -0.14694E-02   -0.18286E-02  3472   0.173E-01    0.374E-01
RMM:   4    -0.891873113190E+03   -0.31055E-03   -0.65647E-03  3271   0.948E-02    0.215E-01
RMM:   5    -0.891873407425E+03   -0.29424E-03   -0.25951E-03  2991   0.570E-02    0.846E-02
RMM:   6    -0.891873359631E+03    0.47794E-04   -0.10513E-03  2250   0.424E-02    0.570E-02
RMM:   7    -0.891873386051E+03   -0.26420E-04   -0.74843E-04  2041   0.393E-02
  31 F= -.91276682E+03 E0= -.91276682E+03  d E =-.144401E-01  mag=     2.0000
       N       E                     dE             d eps       ncg     rms          rms(c)
DAV:   1    -0.891879065374E+03   -0.57057E-02   -0.83419E-01  2656   0.104E+00    0.247E-01
RMM:   2    -0.891881241241E+03   -0.21759E-02   -0.26927E-02  2939   0.278E-01    0.188E-01
RMM:   3    -0.891881560690E+03   -0.31945E-03   -0.41389E-03  3249   0.840E-02    0.153E-01
RMM:   4    -0.891881607910E+03   -0.47220E-04   -0.12200E-03  2340   0.476E-02    0.101E-01
RMM:   5    -0.891881717932E+03   -0.11002E-03   -0.65461E-04  1763   0.405E-02    0.474E-02
RMM:   6    -0.891881729492E+03   -0.11560E-04   -0.22082E-04  1507   0.368E-02
  32 F= -.91277490E+03 E0= -.91277490E+03  d E =-.808195E-02  mag=     2.0000
       N       E                     dE             d eps       ncg     rms          rms(c)
DAV:   1    -0.891880796033E+03    0.92190E-03   -0.18980E+00  2400   0.157E+00    0.379E-01
RMM:   2    -0.891885749698E+03   -0.49537E-02   -0.60947E-02  2964   0.417E-01    0.281E-01
RMM:   3    -0.891886461805E+03   -0.71211E-03   -0.93684E-03  3399   0.129E-01    0.227E-01
RMM:   4    -0.891886630635E+03   -0.16883E-03   -0.33572E-03  3027   0.706E-02    0.145E-01
RMM:   5    -0.891886806516E+03   -0.17588E-03   -0.12487E-03  2172   0.445E-02    0.706E-02
RMM:   6    -0.891886806025E+03    0.49130E-06   -0.51117E-04  1712   0.416E-02
  33 F= -.91277959E+03 E0= -.91277959E+03  d E =-.127730E-01  mag=     2.0000
       N       E                     dE             d eps       ncg     rms          rms(c)
DAV:   1    -0.891888996635E+03   -0.21901E-02   -0.77296E-01  2560   0.106E+00    0.228E-01
RMM:   2    -0.891891168437E+03   -0.21718E-02   -0.24890E-02  2935   0.279E-01    0.183E-01
RMM:   3    -0.891891455898E+03   -0.28746E-03   -0.39260E-03  3220   0.819E-02    0.158E-01
RMM:   4    -0.891891490197E+03   -0.34299E-04   -0.17269E-03  2605   0.535E-02    0.866E-02
RMM:   5    -0.891891558366E+03   -0.68169E-04   -0.58339E-04  1693   0.375E-02
  34 F= -.91278438E+03 E0= -.91278438E+03  d E =-.479367E-02  mag=     1.9999
       N       E                     dE             d eps       ncg     rms          rms(c)
DAV:   1    -0.891891075912E+03    0.41428E-03   -0.39886E-01  2704   0.760E-01    0.171E-01
RMM:   2    -0.891892264157E+03   -0.11882E-02   -0.13925E-02  2986   0.204E-01    0.142E-01
RMM:   3    -0.891892424560E+03   -0.16040E-03   -0.20142E-03  2797   0.596E-02    0.124E-01
RMM:   4    -0.891892479097E+03   -0.54537E-04   -0.10059E-03  2246   0.463E-02    0.730E-02
RMM:   5    -0.891892546292E+03   -0.67195E-04   -0.46240E-04  1625   0.372E-02
  35 F= -.91278540E+03 E0= -.91278539E+03  d E =-.581285E-02  mag=     1.9998
       N       E                     dE             d eps       ncg     rms          rms(c)
DAV:   1    -0.891894274020E+03   -0.17949E-02   -0.72307E-01  2528   0.992E-01    0.184E-01
RMM:   2    -0.891896138763E+03   -0.18647E-02   -0.21697E-02  2976   0.249E-01    0.143E-01
RMM:   3    -0.891896398017E+03   -0.25925E-03   -0.31062E-03  3050   0.721E-02    0.128E-01
RMM:   4    -0.891896419075E+03   -0.21058E-04   -0.10192E-03  2216   0.467E-02    0.808E-02
RMM:   5    -0.891896518955E+03   -0.99880E-04   -0.70007E-04  1926   0.424E-02
  36 F= -.91278966E+03 E0= -.91278964E+03  d E =-.425713E-02  mag=     1.9998
       N       E                     dE             d eps       ncg     rms          rms(c)
DAV:   1    -0.891893047889E+03    0.33712E-02   -0.18640E+00  2400   0.159E+00    0.294E-01
RMM:   2    -0.891897665259E+03   -0.46174E-02   -0.53436E-02  2967   0.393E-01    0.229E-01
RMM:   3    -0.891898308818E+03   -0.64356E-03   -0.78237E-03  3325   0.116E-01    0.201E-01
RMM:   4    -0.891898377999E+03   -0.69180E-04   -0.26583E-03  2895   0.650E-02    0.126E-01
RMM:   5    -0.891898548175E+03   -0.17018E-03   -0.12295E-03  2319   0.468E-02    0.646E-02
RMM:   6    -0.891898520138E+03    0.28037E-04   -0.35417E-04  1644   0.373E-02
  37 F= -.91279212E+03 E0= -.91279208E+03  d E =-.671760E-02  mag=     1.9994
       N       E                     dE             d eps       ncg     rms          rms(c)
DAV:   1    -0.891899756785E+03   -0.12086E-02   -0.38023E-01  2624   0.695E-01    0.159E-01
RMM:   2    -0.891900740316E+03   -0.98353E-03   -0.11552E-02  2972   0.186E-01    0.127E-01
RMM:   3    -0.891900885222E+03   -0.14491E-03   -0.17531E-03  2530   0.531E-02    0.108E-01
RMM:   4    -0.891900925906E+03   -0.40684E-04   -0.52226E-04  1730   0.426E-02
  38 F= -.91279490E+03 E0= -.91279489E+03  d E =-.278547E-02  mag=     1.9999
       N       E                     dE             d eps       ncg     rms          rms(c)
DAV:   1    -0.891897727204E+03    0.31580E-02   -0.21183E+00  2400   0.164E+00    0.371E-01
RMM:   2    -0.891902728055E+03   -0.50009E-02   -0.59212E-02  2960   0.424E-01    0.303E-01
RMM:   3    -0.891903568698E+03   -0.84064E-03   -0.10251E-02  3405   0.124E-01    0.258E-01
RMM:   4    -0.891903667938E+03   -0.99240E-04   -0.24888E-03  2917   0.617E-02    0.168E-01
RMM:   5    -0.891903859880E+03   -0.19194E-03   -0.12976E-03  2347   0.458E-02    0.662E-02
RMM:   6    -0.891903846619E+03    0.13261E-04   -0.36007E-04  1631   0.370E-02
  39 F= -.91279873E+03 E0= -.91279872E+03  d E =-.660677E-02  mag=     2.0000
       N       E                     dE             d eps       ncg     rms          rms(c)
DAV:   1    -0.891902925713E+03    0.93417E-03   -0.28649E-01  2768   0.603E-01    0.138E-01
RMM:   2    -0.891903716885E+03   -0.79117E-03   -0.91912E-03  2999   0.164E-01    0.110E-01
RMM:   3    -0.891903842182E+03   -0.12530E-03   -0.14027E-03  2393   0.487E-02    0.946E-02
RMM:   4    -0.891903903106E+03   -0.60924E-04   -0.54681E-04  1729   0.418E-02
  40 F= -.91279911E+03 E0= -.91279911E+03  d E =-.699448E-02  mag=     2.0000
       N       E                     dE             d eps       ncg     rms          rms(c)
DAV:   1    -0.891903096081E+03    0.74610E-03   -0.79319E-01  2432   0.969E-01    0.201E-01
RMM:   2    -0.891905226428E+03   -0.21303E-02   -0.24369E-02  2972   0.240E-01    0.162E-01
RMM:   3    -0.891905382926E+03   -0.15650E-03   -0.28195E-03  2985   0.713E-02    0.144E-01
RMM:   4    -0.891905387428E+03   -0.45018E-05   -0.10031E-03  2034   0.443E-02    0.820E-02
RMM:   5    -0.891905459567E+03   -0.72139E-04   -0.49273E-04  1605   0.414E-02
  41 F= -.91280122E+03 E0= -.91280122E+03  d E =-.210435E-02  mag=     2.0000
       N       E                     dE             d eps       ncg     rms          rms(c)
DAV:   1    -0.891905539179E+03   -0.15175E-03   -0.11566E-03  3504   0.423E-02    0.466E-02
RMM:   2    -0.891905553532E+03   -0.14353E-04   -0.12001E-04  1378   0.257E-02
  42 F= -.91280132E+03 E0= -.91280132E+03  d E =-.220851E-02  mag=     2.0000
       N       E                     dE             d eps       ncg     rms          rms(c)
DAV:   1    -0.891905869141E+03   -0.32996E-03   -0.51923E-01  2448   0.794E-01    0.177E-01
RMM:   2    -0.891907186567E+03   -0.13174E-02   -0.14918E-02  2930   0.200E-01    0.116E-01
RMM:   3    -0.891907312087E+03   -0.12552E-03   -0.16292E-03  2445   0.578E-02    0.948E-02
RMM:   4    -0.891907386811E+03   -0.74725E-04   -0.57100E-04  1727   0.406E-02
  43 F= -.91280355E+03 E0= -.91280355E+03  d E =-.222843E-02  mag=     2.0000
       N       E                     dE             d eps       ncg     rms          rms(c)
DAV:   1    -0.891904934741E+03    0.23773E-02   -0.13699E+00  2368   0.129E+00    0.288E-01
RMM:   2    -0.891908443547E+03   -0.35088E-02   -0.39474E-02  2977   0.329E-01    0.187E-01
RMM:   3    -0.891908948215E+03   -0.50467E-03   -0.59568E-03  3319   0.986E-02    0.155E-01
RMM:   4    -0.891909051503E+03   -0.10329E-03   -0.15331E-03  2443   0.478E-02    0.943E-02
RMM:   5    -0.891909178347E+03   -0.12684E-03   -0.69655E-04  1766   0.399E-02    0.464E-02
RMM:   6    -0.891909190555E+03   -0.12208E-04   -0.23235E-04  1527   0.363E-02
  44 F= -.91280600E+03 E0= -.91280600E+03  d E =-.467661E-02  mag=     2.0000
       N       E                     dE             d eps       ncg     rms          rms(c)
DAV:   1    -0.891891409297E+03    0.17769E-01   -0.54879E+00  2384   0.259E+00    0.551E-01
RMM:   2    -0.891905429301E+03   -0.14020E-01   -0.15464E-01  2995   0.649E-01    0.359E-01
RMM:   3    -0.891907122488E+03   -0.16932E-02   -0.21497E-02  3402   0.195E-01    0.299E-01
RMM:   4    -0.891907519424E+03   -0.39694E-03   -0.65050E-03  3289   0.866E-02    0.174E-01
RMM:   5    -0.891907846721E+03   -0.32730E-03   -0.25098E-03  2815   0.531E-02    0.747E-02
RMM:   6    -0.891907929778E+03   -0.83057E-04   -0.11543E-03  2241   0.433E-02    0.500E-02
RMM:   7    -0.891907983491E+03   -0.53714E-04   -0.52187E-04  1692   0.363E-02
  45 F= -.91280609E+03 E0= -.91280609E+03  d E =-.476557E-02  mag=     2.0000
       N       E                     dE             d eps       ncg     rms          rms(c)
DAV:   1    -0.891903481571E+03    0.44482E-02   -0.22629E+00  2368   0.167E+00    0.357E-01
RMM:   2    -0.891908985373E+03   -0.55038E-02   -0.62177E-02  2984   0.409E-01    0.227E-01
RMM:   3    -0.891909481946E+03   -0.49657E-03   -0.66614E-03  3045   0.117E-01    0.187E-01
RMM:   4    -0.891909589394E+03   -0.10745E-03   -0.16664E-03  2259   0.548E-02    0.100E-01
RMM:   5    -0.891909726390E+03   -0.13700E-03   -0.56999E-04  1672   0.405E-02    0.429E-02
RMM:   6    -0.891909744284E+03   -0.17893E-04   -0.17865E-04  1406   0.337E-02
  46 F= -.91280701E+03 E0= -.91280701E+03  d E =-.569193E-02  mag=     2.0000
       N       E                     dE             d eps       ncg     rms          rms(c)
DAV:   1    -0.891906311791E+03    0.34146E-02   -0.10187E+00  2416   0.112E+00    0.236E-01
RMM:   2    -0.891908732037E+03   -0.24202E-02   -0.27756E-02  2927   0.274E-01    0.152E-01
RMM:   3    -0.891908920439E+03   -0.18840E-03   -0.29781E-03  2787   0.794E-02    0.124E-01
RMM:   4    -0.891908973895E+03   -0.53456E-04   -0.83813E-04  1892   0.431E-02
  47 F= -.91280680E+03 E0= -.91280680E+03  d E =-.548062E-02  mag=     2.0000
       N       E                     dE             d eps       ncg     rms          rms(c)
DAV:   1    -0.891908533245E+03    0.38719E-03   -0.43518E-01  2448   0.732E-01    0.150E-01
RMM:   2    -0.891909600598E+03   -0.10674E-02   -0.11926E-02  2863   0.178E-01    0.933E-02
RMM:   3    -0.891909664214E+03   -0.63616E-04   -0.10009E-03  1915   0.518E-02    0.771E-02
RMM:   4    -0.891909697981E+03   -0.33767E-04   -0.45963E-04  1472   0.397E-02
  48 F= -.91280716E+03 E0= -.91280716E+03  d E =-.584120E-02  mag=     2.0000
       N       E                     dE             d eps       ncg     rms          rms(c)
DAV:   1    -0.891909241401E+03    0.42281E-03   -0.10838E-01  2512   0.366E-01    0.752E-02
RMM:   2    -0.891909489752E+03   -0.24835E-03   -0.29477E-03  2468   0.891E-02    0.471E-02
RMM:   3    -0.891909503410E+03   -0.13658E-04   -0.26495E-04  1419   0.312E-02
  49 F= -.91280715E+03 E0= -.91280715E+03  d E =-.582827E-02  mag=     2.0000
       N       E                     dE             d eps       ncg     rms          rms(c)
DAV:   1    -0.891909582059E+03   -0.92306E-04   -0.49055E-02  2592   0.247E-01    0.474E-02
RMM:   2    -0.891909706426E+03   -0.12437E-03   -0.12767E-03  2015   0.586E-02    0.263E-02
RMM:   3    -0.891909733844E+03   -0.27418E-04   -0.14711E-04  1265   0.283E-02
  50 F= -.91280726E+03 E0= -.91280726E+03  d E =-.593559E-02  mag=     2.0000
       N       E                     dE             d eps       ncg     rms          rms(c)
DAV:   1    -0.891909644468E+03    0.61958E-04   -0.11897E-02  2624   0.123E-01    0.258E-02
RMM:   2    -0.891909685865E+03   -0.41397E-04   -0.27481E-04  1342   0.284E-02
  51 F= -.91280727E+03 E0= -.91280727E+03  d E =-.594916E-02  mag=     2.0000
       N       E                     dE             d eps       ncg     rms          rms(c)
DAV:   1    -0.891909743624E+03   -0.99156E-04   -0.41670E-03  2720   0.744E-02    0.164E-02
RMM:   2    -0.891909749282E+03   -0.56581E-05   -0.97419E-05  1227   0.183E-02
  52 F= -.91280730E+03 E0= -.91280730E+03  d E =-.597585E-02  mag=     2.0000
       N       E                     dE             d eps       ncg     rms          rms(c)
DAV:   1    -0.891909431983E+03    0.31164E-03   -0.52552E-01  2432   0.741E-01    0.167E-01
RMM:   2    -0.891910685713E+03   -0.12537E-02   -0.15389E-02  2885   0.198E-01    0.115E-01
RMM:   3    -0.891910857919E+03   -0.17221E-03   -0.20655E-03  2449   0.614E-02    0.949E-02
RMM:   4    -0.891910894308E+03   -0.36388E-04   -0.51894E-04  1613   0.396E-02
  53 F= -.91280913E+03 E0= -.91280913E+03  d E =-.183684E-02  mag=     2.0000
       N       E                     dE             d eps       ncg     rms          rms(c)
DAV:   1    -0.891910848361E+03    0.95584E-05   -0.55494E-02  2592   0.245E-01    0.766E-02
RMM:   2    -0.891910957155E+03   -0.10879E-03   -0.18307E-03  2222   0.708E-02    0.554E-02
RMM:   3    -0.891911000495E+03   -0.43341E-04   -0.36369E-04  1536   0.308E-02
  54 F= -.91280946E+03 E0= -.91280946E+03  d E =-.216695E-02  mag=     2.0000
       N       E                     dE             d eps       ncg     rms          rms(c)
DAV:   1    -0.891911442050E+03   -0.48490E-03   -0.32728E-01  2400   0.571E-01    0.183E-01
RMM:   2    -0.891912213688E+03   -0.77164E-03   -0.96179E-03  2943   0.154E-01    0.150E-01
RMM:   3    -0.891912304620E+03   -0.90932E-04   -0.11668E-03  2072   0.469E-02    0.126E-01
RMM:   4    -0.891912402120E+03   -0.97501E-04   -0.73200E-04  1691   0.427E-02
  55 F= -.91281153E+03 E0= -.91281153E+03  d E =-.206193E-02  mag=     2.0000
       N       E                     dE             d eps       ncg     rms          rms(c)
DAV:   1    -0.891911908783E+03    0.39584E-03   -0.19405E-01  2512   0.442E-01    0.147E-01
RMM:   2    -0.891912392419E+03   -0.48364E-03   -0.65373E-03  2907   0.122E-01    0.112E-01
RMM:   3    -0.891912459390E+03   -0.66970E-04   -0.75347E-04  1753   0.390E-02
  56 F= -.91281209E+03 E0= -.91281209E+03  d E =-.262799E-02  mag=     2.0000
       N       E                     dE             d eps       ncg     rms          rms(c)
DAV:   1    -0.891912598379E+03   -0.20596E-03   -0.11439E-02  3408   0.121E-01    0.501E-02
RMM:   2    -0.891912650049E+03   -0.51670E-04   -0.37905E-04  1569   0.350E-02
  57 F= -.91281216E+03 E0= -.91281216E+03  d E =-.269667E-02  mag=     2.0000
       N       E                     dE             d eps       ncg     rms          rms(c)
DAV:   1    -0.891912620535E+03   -0.22155E-04   -0.46700E-03  3344   0.751E-02    0.396E-02
RMM:   2    -0.891912638955E+03   -0.18421E-04   -0.17186E-04  1296   0.275E-02
  58 F= -.91281223E+03 E0= -.91281223E+03  d E =-.276452E-02  mag=     2.0000
       N       E                     dE             d eps       ncg     rms          rms(c)
DAV:   1    -0.891912427870E+03    0.19266E-03   -0.23462E-01  2400   0.504E-01    0.127E-01
RMM:   2    -0.891912970980E+03   -0.54311E-03   -0.67726E-03  2836   0.130E-01    0.930E-02
RMM:   3    -0.891913031735E+03   -0.60755E-04   -0.73649E-04  1828   0.410E-02
  59 F= -.91281314E+03 E0= -.91281314E+03  d E =-.911495E-03  mag=     2.0000
       N       E                     dE             d eps       ncg     rms          rms(c)
DAV:   1    -0.891913021809E+03   -0.50829E-04   -0.65875E-02  2752   0.274E-01    0.874E-02
RMM:   2    -0.891913155686E+03   -0.13388E-03   -0.18608E-03  2301   0.694E-02    0.692E-02
RMM:   3    -0.891913186539E+03   -0.30853E-04   -0.28285E-04  1496   0.309E-02
  60 F= -.91281357E+03 E0= -.91281357E+03  d E =-.134051E-02  mag=     2.0000
       N       E                     dE             d eps       ncg     rms          rms(c)
DAV:   1    -0.891912347128E+03    0.80856E-03   -0.26105E-01  2480   0.534E-01    0.144E-01
RMM:   2    -0.891912959053E+03   -0.61193E-03   -0.76508E-03  2916   0.140E-01    0.111E-01
RMM:   3    -0.891913041500E+03   -0.82447E-04   -0.97131E-04  1978   0.458E-02
  61 F= -.91281397E+03 E0= -.91281397E+03  d E =-.174404E-02  mag=     2.0000
       N       E                     dE             d eps       ncg     rms          rms(c)
DAV:   1    -0.891913167387E+03   -0.20833E-03   -0.37576E-02  3072   0.210E-01    0.588E-02
RMM:   2    -0.891913289732E+03   -0.12235E-03   -0.11008E-03  1922   0.514E-02    0.349E-02
RMM:   3    -0.891913306896E+03   -0.17164E-04   -0.14264E-04  1365   0.283E-02
  62 F= -.91281403E+03 E0= -.91281403E+03  d E =-.180423E-02  mag=     2.0000
       N       E                     dE             d eps       ncg     rms          rms(c)
DAV:   1    -0.891913216014E+03    0.73718E-04   -0.18556E-02  3008   0.143E-01    0.410E-02
RMM:   2    -0.891913252543E+03   -0.36529E-04   -0.47696E-04  1436   0.373E-02
  63 F= -.91281413E+03 E0= -.91281413E+03  d E =-.189730E-02  mag=     2.0000
       N       E                     dE             d eps       ncg     rms          rms(c)
DAV:   1    -0.891912831715E+03    0.38430E-03   -0.34448E-01  2400   0.622E-01    0.132E-01
RMM:   2    -0.891913647598E+03   -0.81588E-03   -0.95925E-03  2888   0.152E-01    0.920E-02
RMM:   3    -0.891913720267E+03   -0.72669E-04   -0.94097E-04  1917   0.456E-02
  64 F= -.91281520E+03 E0= -.91281520E+03  d E =-.107706E-02  mag=     2.0000
       N       E                     dE             d eps       ncg     rms          rms(c)
DAV:   1    -0.891913496594E+03    0.15100E-03   -0.16212E-01  2496   0.430E-01    0.103E-01
RMM:   2    -0.891913849861E+03   -0.35327E-03   -0.44281E-03  2785   0.105E-01    0.809E-02
RMM:   3    -0.891913900158E+03   -0.50297E-04   -0.52235E-04  1640   0.353E-02
  65 F= -.91281580E+03 E0= -.91281580E+03  d E =-.167776E-02  mag=     2.0000
       N       E                     dE             d eps       ncg     rms          rms(c)
DAV:   1    -0.891911870813E+03    0.19790E-02   -0.65095E-01  2400   0.856E-01    0.192E-01
RMM:   2    -0.891913376751E+03   -0.15059E-02   -0.17821E-02  2957   0.211E-01    0.143E-01
RMM:   3    -0.891913550790E+03   -0.17404E-03   -0.22719E-03  2726   0.651E-02    0.118E-01
RMM:   4    -0.891913650560E+03   -0.99770E-04   -0.73704E-04  1857   0.420E-02
  66 F= -.91281640E+03 E0= -.91281640E+03  d E =-.227085E-02  mag=     2.0000
       N       E                     dE             d eps       ncg     rms          rms(c)
DAV:   1    -0.891913340775E+03    0.21001E-03   -0.18833E-01  2768   0.442E-01    0.968E-02
RMM:   2    -0.891913765051E+03   -0.42428E-03   -0.53219E-03  2763   0.103E-01    0.657E-02
RMM:   3    -0.891913822685E+03   -0.57634E-04   -0.61312E-04  1746   0.357E-02
  67 F= -.91281708E+03 E0= -.91281708E+03  d E =-.678753E-03  mag=     2.0000
       N       E                     dE             d eps       ncg     rms          rms(c)
DAV:   1    -0.891913577645E+03    0.18741E-03   -0.99433E-02  2656   0.323E-01    0.836E-02
RMM:   2    -0.891913797128E+03   -0.21948E-03   -0.27172E-03  2440   0.776E-02    0.657E-02
RMM:   3    -0.891913829749E+03   -0.32621E-04   -0.30995E-04  1504   0.320E-02
  68 F= -.91281745E+03 E0= -.91281745E+03  d E =-.104985E-02  mag=     2.0000
       N       E                     dE             d eps       ncg     rms          rms(c)
DAV:   1    -0.891912487248E+03    0.13099E-02   -0.39346E-01  2432   0.635E-01    0.131E-01
RMM:   2    -0.891913342679E+03   -0.85543E-03   -0.10167E-02  2873   0.147E-01    0.966E-02
RMM:   3    -0.891913419687E+03   -0.77009E-04   -0.10652E-03  2038   0.477E-02    0.813E-02
RMM:   4    -0.891913486271E+03   -0.66583E-04   -0.34861E-04  1556   0.377E-02
  69 F= -.91281783E+03 E0= -.91281783E+03  d E =-.143476E-02  mag=     2.0000
       N       E                     dE             d eps       ncg     rms          rms(c)
DAV:   1    -0.891913468336E+03   -0.48648E-04   -0.82611E-02  2768   0.278E-01    0.708E-02
RMM:   2    -0.891913624767E+03   -0.15643E-03   -0.20785E-03  2242   0.689E-02    0.533E-02
RMM:   3    -0.891913663143E+03   -0.38376E-04   -0.32118E-04  1476   0.306E-02
  70 F= -.91281846E+03 E0= -.91281846E+03  d E =-.627742E-03  mag=     2.0000
       N       E                     dE             d eps       ncg     rms          rms(c)
DAV:   1    -0.891913235457E+03    0.38931E-03   -0.17481E-01  2512   0.401E-01    0.108E-01
RMM:   2    -0.891913602555E+03   -0.36710E-03   -0.43614E-03  2649   0.978E-02    0.888E-02
RMM:   3    -0.891913651539E+03   -0.48984E-04   -0.48937E-04  1571   0.355E-02
  71 F= -.91281909E+03 E0= -.91281909E+03  d E =-.126278E-02  mag=     2.0000
       N       E                     dE             d eps       ncg     rms          rms(c)
DAV:   1    -0.891911415926E+03    0.21866E-02   -0.69364E-01  2432   0.794E-01    0.202E-01
RMM:   2    -0.891912819051E+03   -0.14031E-02   -0.16475E-02  2929   0.191E-01    0.161E-01
RMM:   3    -0.891912987331E+03   -0.16828E-03   -0.20236E-03  2391   0.599E-02    0.138E-01
RMM:   4    -0.891913073400E+03   -0.86069E-04   -0.59746E-04  1664   0.402E-02
  72 F= -.91281981E+03 E0= -.91281981E+03  d E =-.197872E-02  mag=     2.0000
       N       E                     dE             d eps       ncg     rms          rms(c)
DAV:   1    -0.891912501113E+03    0.48622E-03   -0.21632E-01  2720   0.447E-01    0.117E-01
RMM:   2    -0.891912904547E+03   -0.40343E-03   -0.59007E-03  2714   0.105E-01    0.832E-02
RMM:   3    -0.891912966859E+03   -0.62312E-04   -0.67944E-04  1724   0.380E-02
  73 F= -.91282047E+03 E0= -.91282047E+03  d E =-.659136E-03  mag=     2.0000
       N       E                     dE             d eps       ncg     rms          rms(c)
DAV:   1    -0.891912809897E+03    0.94650E-04   -0.34952E-02  3168   0.187E-01    0.768E-02
RMM:   2    -0.891912878468E+03   -0.68572E-04   -0.92391E-04  1853   0.478E-02
  74 F= -.91282068E+03 E0= -.91282068E+03  d E =-.874010E-03  mag=     2.0000
       N       E                     dE             d eps       ncg     rms          rms(c)
DAV:   1    -0.891912151706E+03    0.65819E-03   -0.13833E-01  2432   0.355E-01    0.112E-01
RMM:   2    -0.891912438841E+03   -0.28713E-03   -0.37839E-03  2482   0.864E-02    0.957E-02
RMM:   3    -0.891912480294E+03   -0.41453E-04   -0.42002E-04  1487   0.338E-02
  75 F= -.91282089E+03 E0= -.91282089E+03  d E =-.108253E-02  mag=     2.0000
       N       E                     dE             d eps       ncg     rms          rms(c)
DAV:   1    -0.891912306305E+03    0.13254E-03   -0.92064E-02  2784   0.306E-01    0.874E-02
RMM:   2    -0.891912474427E+03   -0.16812E-03   -0.23410E-03  2357   0.749E-02    0.736E-02
RMM:   3    -0.891912495673E+03   -0.21247E-04   -0.23971E-04  1457   0.309E-02
  76 F= -.91282141E+03 E0= -.91282141E+03  d E =-.519851E-03  mag=     2.0000
       N       E                     dE             d eps       ncg     rms          rms(c)
DAV:   1    -0.891909976543E+03    0.24979E-02   -0.83894E-01  2416   0.907E-01    0.208E-01
RMM:   2    -0.891911614131E+03   -0.16376E-02   -0.20841E-02  2929   0.208E-01    0.174E-01
RMM:   3    -0.891911740069E+03   -0.12594E-03   -0.20113E-03  2450   0.638E-02    0.153E-01
RMM:   4    -0.891911894680E+03   -0.15461E-03   -0.96043E-04  1912   0.457E-02    0.807E-02
RMM:   5    -0.891912007662E+03   -0.11298E-03   -0.48529E-04  1600   0.383E-02    0.424E-02
RMM:   6    -0.891912012701E+03   -0.50391E-05   -0.14108E-04  1438   0.310E-02
  77 F= -.91282244E+03 E0= -.91282244E+03  d E =-.155129E-02  mag=     2.0000
       N       E                     dE             d eps       ncg     rms          rms(c)
DAV:   1    -0.891900701950E+03    0.11306E-01   -0.33568E+00  2368   0.181E+00    0.375E-01
RMM:   2    -0.891907586169E+03   -0.68842E-02   -0.83503E-02  2944   0.396E-01    0.284E-01
RMM:   3    -0.891908022740E+03   -0.43657E-03   -0.75543E-03  3079   0.127E-01    0.249E-01
RMM:   4    -0.891908285649E+03   -0.26291E-03   -0.30839E-03  2570   0.643E-02    0.140E-01
RMM:   5    -0.891908534240E+03   -0.24859E-03   -0.10882E-03  1924   0.460E-02    0.650E-02
RMM:   6    -0.891908528390E+03    0.58493E-05   -0.40353E-04  1579   0.384E-02
  78 F= -.91282199E+03 E0= -.91282199E+03  d E =-.110020E-02  mag=     2.0000
       N       E                     dE             d eps       ncg     rms          rms(c)
DAV:   1    -0.891907909026E+03    0.62521E-03   -0.17147E+00  2368   0.130E+00    0.264E-01
RMM:   2    -0.891911208192E+03   -0.32992E-02   -0.41137E-02  2947   0.276E-01    0.200E-01
RMM:   3    -0.891911327178E+03   -0.11899E-03   -0.29028E-03  2427   0.813E-02    0.174E-01
RMM:   4    -0.891911409431E+03   -0.82254E-04   -0.14132E-03  1980   0.514E-02    0.899E-02
RMM:   5    -0.891911536365E+03   -0.12693E-03   -0.56007E-04  1541   0.405E-02    0.436E-02
RMM:   6    -0.891911560004E+03   -0.23640E-04   -0.19260E-04  1306   0.310E-02
  79 F= -.91282285E+03 E0= -.91282285E+03  d E =-.196036E-02  mag=     2.0000
       N       E                     dE             d eps       ncg     rms          rms(c)
DAV:   1    -0.891911053845E+03    0.48252E-03   -0.12658E-01  2432   0.356E-01    0.728E-02
RMM:   2    -0.891911275134E+03   -0.22129E-03   -0.30925E-03  2392   0.835E-02    0.499E-02
RMM:   3    -0.891911288066E+03   -0.12932E-04   -0.31704E-04  1453   0.318E-02
  80 F= -.91282320E+03 E0= -.91282320E+03  d E =-.345912E-03  mag=     2.0000
       N       E                     dE             d eps       ncg     rms          rms(c)
DAV:   1    -0.891911073785E+03    0.20135E-03   -0.33989E-02  2736   0.192E-01    0.528E-02
RMM:   2    -0.891911136959E+03   -0.63174E-04   -0.84960E-04  1755   0.498E-02
  81 F= -.91282336E+03 E0= -.91282336E+03  d E =-.511404E-03  mag=     2.0000
       N       E                     dE             d eps       ncg     rms          rms(c)
DAV:   1    -0.891910423545E+03    0.65024E-03   -0.13488E-01  2400   0.369E-01    0.955E-02
RMM:   2    -0.891910719687E+03   -0.29614E-03   -0.38442E-03  2579   0.941E-02    0.768E-02
RMM:   3    -0.891910763152E+03   -0.43465E-04   -0.41464E-04  1521   0.347E-02
  82 F= -.91282362E+03 E0= -.91282362E+03  d E =-.770940E-03  mag=     2.0000
       N       E                     dE             d eps       ncg     rms          rms(c)
DAV:   1    -0.891908571393E+03    0.21483E-02   -0.53264E-01  2368   0.734E-01    0.159E-01
RMM:   2    -0.891909657166E+03   -0.10858E-02   -0.13930E-02  2834   0.185E-01    0.118E-01
RMM:   3    -0.891909817613E+03   -0.16045E-03   -0.18566E-03  2509   0.599E-02    0.102E-01
RMM:   4    -0.891909910136E+03   -0.92524E-04   -0.47518E-04  1624   0.377E-02
  83 F= -.91282404E+03 E0= -.91282404E+03  d E =-.118517E-02  mag=     2.0000
       N       E                     dE             d eps       ncg     rms          rms(c)
DAV:   1    -0.891902183024E+03    0.76346E-02   -0.21294E+00  2368   0.146E+00    0.306E-01
RMM:   2    -0.891906584752E+03   -0.44017E-02   -0.56124E-02  2977   0.350E-01    0.209E-01
RMM:   3    -0.891907130359E+03   -0.54561E-03   -0.68905E-03  3372   0.109E-01    0.178E-01
RMM:   4    -0.891907322774E+03   -0.19241E-03   -0.20349E-03  2560   0.521E-02    0.120E-01
RMM:   5    -0.891907577706E+03   -0.25493E-03   -0.11097E-03  2051   0.432E-02    0.613E-02
RMM:   6    -0.891907603202E+03   -0.25496E-04   -0.28479E-04  1561   0.373E-02
  84 F= -.91282427E+03 E0= -.91282427E+03  d E =-.141506E-02  mag=     2.0000
       N       E                     dE             d eps       ncg     rms          rms(c)
DAV:   1    -0.891907044624E+03    0.53308E-03   -0.11347E+00  2368   0.107E+00    0.212E-01
RMM:   2    -0.891909306067E+03   -0.22614E-02   -0.28186E-02  2944   0.245E-01    0.147E-01
RMM:   3    -0.891909467332E+03   -0.16127E-03   -0.25241E-03  2430   0.737E-02    0.124E-01
RMM:   4    -0.891909538443E+03   -0.71111E-04   -0.77393E-04  1764   0.446E-02
  85 F= -.91282435E+03 E0= -.91282435E+03  d E =-.150118E-02  mag=     2.0000
       N       E                     dE             d eps       ncg     rms          rms(c)
DAV:   1    -0.891907795467E+03    0.16719E-02   -0.35841E-01  2432   0.601E-01    0.113E-01
RMM:   2    -0.891908624157E+03   -0.82869E-03   -0.95035E-03  2831   0.143E-01    0.736E-02
RMM:   3    -0.891908652238E+03   -0.28081E-04   -0.68397E-04  1686   0.434E-02
  86 F= -.91282450E+03 E0= -.91282450E+03  d E =-.164415E-02  mag=     2.0000
       N       E                     dE             d eps       ncg     rms          rms(c)
DAV:   1    -0.891908971772E+03   -0.34761E-03   -0.15622E-01  2448   0.398E-01    0.788E-02
RMM:   2    -0.891909358892E+03   -0.38712E-03   -0.42201E-03  2564   0.917E-02    0.333E-02
RMM:   3    -0.891909399489E+03   -0.40597E-04   -0.37958E-04  1305   0.345E-02
  87 F= -.91282456E+03 E0= -.91282456E+03  d E =-.170560E-02  mag=     2.0000
       N       E                     dE             d eps       ncg     rms          rms(c)
DAV:   1    -0.891909008715E+03    0.35018E-03   -0.38097E-02  2528   0.198E-01    0.421E-02
RMM:   2    -0.891909101948E+03   -0.93233E-04   -0.93692E-04  1680   0.444E-02
  88 F= -.91282460E+03 E0= -.91282460E+03  d E =-.175092E-02  mag=     2.0000
       N       E                     dE             d eps       ncg     rms          rms(c)
DAV:   1    -0.891909281440E+03   -0.27272E-03   -0.79288E-03  2768   0.944E-02    0.224E-02
RMM:   2    -0.891909298096E+03   -0.16657E-04   -0.19778E-04  1342   0.219E-02
  89 F= -.91282464E+03 E0= -.91282464E+03  d E =-.178862E-02  mag=     2.0000
       N       E                     dE             d eps       ncg     rms          rms(c)
DAV:   1    -0.891909246607E+03    0.34832E-04   -0.14868E-03  2304   0.418E-02    0.143E-02
RMM:   2    -0.891909261195E+03   -0.14588E-04   -0.52596E-05  1224   0.139E-02
  90 F= -.91282467E+03 E0= -.91282467E+03  d E =-.182114E-02  mag=     2.0000
       N       E                     dE             d eps       ncg     rms          rms(c)
DAV:   1    -0.891909282358E+03   -0.35751E-04   -0.16497E-04  1616   0.148E-02    0.121E-02
RMM:   2    -0.891909295672E+03   -0.13314E-04   -0.24931E-05  1150   0.783E-03
  91 F= -.91282469E+03 E0= -.91282469E+03  d E =-.183340E-02  mag=     2.0000
       N       E                     dE             d eps       ncg     rms          rms(c)
DAV:   1    -0.891909299592E+03   -0.17234E-04   -0.60555E-05  1328   0.685E-03    0.113E-02
RMM:   2    -0.891909312041E+03   -0.12449E-04   -0.22076E-05  1026   0.574E-03
  92 F= -.91282471E+03 E0= -.91282471E+03  d E =-.185885E-02  mag=     2.0000
       N       E                     dE             d eps       ncg     rms          rms(c)
DAV:   1    -0.891909384270E+03   -0.84678E-04   -0.24332E-02  2432   0.176E-01    0.388E-02
RMM:   2    -0.891909441742E+03   -0.57472E-04   -0.66251E-04  1621   0.498E-02
  93 F= -.91282507E+03 E0= -.91282507E+03  d E =-.355724E-03  mag=     2.0000
       N       E                     dE             d eps       ncg     rms          rms(c)
DAV:   1    -0.891909382254E+03    0.20164E-05   -0.40233E-02  2464   0.229E-01    0.761E-02
RMM:   2    -0.891909487857E+03   -0.10560E-03   -0.13595E-03  2109   0.661E-02    0.741E-02
RMM:   3    -0.891909511262E+03   -0.23405E-04   -0.22909E-04  1430   0.303E-02
  94 F= -.91282542E+03 E0= -.91282542E+03  d E =-.711992E-03  mag=     2.0000
       N       E                     dE             d eps       ncg     rms          rms(c)
DAV:   1    -0.891908762074E+03    0.72578E-03   -0.15523E-01  2400   0.448E-01    0.117E-01
RMM:   2    -0.891909163110E+03   -0.40104E-03   -0.54082E-03  2743   0.136E-01    0.118E-01
RMM:   3    -0.891909233072E+03   -0.69962E-04   -0.96455E-04  2028   0.444E-02
  95 F= -.91282572E+03 E0= -.91282572E+03  d E =-.100737E-02  mag=     2.0000
       N       E                     dE             d eps       ncg     rms          rms(c)
DAV:   1    -0.891909366286E+03   -0.20318E-03   -0.25322E-02  3008   0.187E-01    0.776E-02
RMM:   2    -0.891909495940E+03   -0.12965E-03   -0.93122E-04  1952   0.541E-02    0.300E-02
RMM:   3    -0.891909532391E+03   -0.36451E-04   -0.17862E-04  1345   0.281E-02
  96 F= -.91282579E+03 E0= -.91282579E+03  d E =-.107608E-02  mag=     2.0000
       N       E                     dE             d eps       ncg     rms          rms(c)
DAV:   1    -0.891909440826E+03    0.55114E-04   -0.10061E-02  3056   0.115E-01    0.397E-02
RMM:   2    -0.891909466075E+03   -0.25249E-04   -0.28673E-04  1366   0.331E-02
  97 F= -.91282587E+03 E0= -.91282587E+03  d E =-.115832E-02  mag=     2.0000
       N       E                     dE             d eps       ncg     rms          rms(c)
DAV:   1    -0.891909495141E+03   -0.54315E-04   -0.37127E-02  2432   0.230E-01    0.734E-02
RMM:   2    -0.891909597801E+03   -0.10266E-03   -0.12391E-03  2096   0.653E-02    0.784E-02
RMM:   3    -0.891909617940E+03   -0.20139E-04   -0.21334E-04  1360   0.286E-02
  98 F= -.91282624E+03 E0= -.91282624E+03  d E =-.373562E-03  mag=     2.0000
       N       E                     dE             d eps       ncg     rms          rms(c)
DAV:   1    -0.891909520878E+03    0.76923E-04   -0.30730E-02  3008   0.212E-01    0.951E-02
RMM:   2    -0.891909596763E+03   -0.75885E-04   -0.97254E-04  1986   0.602E-02
  99 F= -.91282643E+03 E0= -.91282643E+03  d E =-.554558E-03  mag=     2.0000
       N       E                     dE             d eps       ncg     rms          rms(c)
DAV:   1    -0.891909723529E+03   -0.20265E-03   -0.26272E-02  2576   0.185E-01    0.889E-02
RMM:   2    -0.891909782124E+03   -0.58595E-04   -0.75201E-04  1696   0.488E-02
 100 F= -.91282671E+03 E0= -.91282671E+03  d E =-.284410E-03  mag=     2.0000
