       N       E                     dE             d eps       ncg     rms          rms(c)
DAV:   1    -0.878653020291E+03   -0.87865E+03   -0.30193E-04  2208   0.399E-02    0.415E-02
RMM:   2    -0.878653016467E+03    0.38237E-05   -0.25495E-04  1454   0.278E-02
   1 F= -.89974121E+03 E0= -.89974121E+03  d E =-.899741E+03  mag=     0.0000
