 vasp.5.3.5 31Mar14 (build May 27 2014 14:39:49) gamma-only                     
  
 executed on           LinuxIFORT date 2020.10.20  04:47:46
 running on   48 total cores
 distrk:  each k-point on   48 cores,    1 groups
 distr:  one band on NCORES_PER_BAND=   6 cores,    8 groups


--------------------------------------------------------------------------------------------------------


 INCAR:
 POTCAR:    PAW_PBE Ce 23Dec2003                  
 POTCAR:    PAW_PBE O 08Apr2002                   
 POTCAR:    PAW_PBE Pt 04Feb2005                  
 POTCAR:    PAW_PBE C 08Apr2002                   
 POTCAR:    PAW_PBE O 08Apr2002                   
 POTCAR:    PAW_PBE Ce 23Dec2003                  
   VRHFIN =Ce : [core= Kr 4d10]                                                 
   LEXCH  = PE                                                                  
   EATOM  =  1063.0861 eV,   78.1346 Ry                                         
                                                                                
   TITEL  = PAW_PBE Ce 23Dec2003                                                
   LULTRA =        F    use ultrasoft PP ?                                      
   IUNSCR =        1    unscreen: 0-lin 1-nonlin 2-no                           
   RPACOR =    1.800    partial core radius                                     
   POMASS =  140.115; ZVAL   =   12.000    mass and valenz                      
   RCORE  =    2.700    outmost cutoff radius                                   
   RWIGS  =    2.500; RWIGS  =    1.323    wigner-seitz radius (au A)           
   ENMAX  =  273.042; ENMIN  =  204.781 eV                                      
   RCLOC  =    1.810    cutoff for local pot                                    
   LCOR   =        T    correct aug charges                                     
   LPAW   =        T    paw PP                                                  
   EAUG   =  580.196                                                            
   DEXC   =    0.000                                                            
   RMAX   =    2.749    core radius for proj-oper                               
   RAUG   =    1.300    factor for augmentation sphere                          
   RDEP   =    2.810    radius for radial grids                                 
   RDEPT  =    2.162    core radius for aug-charge                              
                                                                                
   Atomic configuration                                                         
   14 entries                                                                   
     n  l   j            E        occ.                                          
     1  0  0.50    -40258.9816   2.0000                                         
     2  0  0.50     -6445.4884   2.0000                                         
     2  1  1.50     -5771.7470   6.0000                                         
     3  0  0.50     -1387.9739   2.0000                                         
     3  1  1.50     -1173.8158   6.0000                                         
     3  2  2.50      -869.9108  10.0000                                         
     4  0  0.50      -280.8706   2.0000                                         
     4  1  1.50      -210.9815   6.0000                                         
     4  2  2.50      -110.4558  10.0000                                         
     5  0  0.50       -40.5819   2.0000                                         
     6  0  0.50        -3.7444   2.0000                                         
     5  1  1.50       -23.2188   6.0000                                         
     5  2  2.50        -3.0598   1.0000                                         
     4  3  2.50        -5.3970   1.0000                                         
   Description                                                                  
     l       E           TYP  RCUT    TYP  RCUT                                 
     0    -40.5819164     23  1.500                                             
     0     -3.7443793     23  2.300                                             
     1    -23.2188445     23  2.000                                             
     1     40.8174780     23  2.300                                             
     2     -3.0597556     23  2.500                                             
     2     13.6058260     23  2.500                                             
     3     -5.3970469     23  2.700                                             
     3     -5.8505052     23  2.700                                             
  local pseudopotential read in
  partial core-charges read in
  partial kinetic energy density read in
  atomic valenz-charges read in
  non local Contribution for L=           0  read in
    real space projection operators read in
  non local Contribution for L=           0  read in
    real space projection operators read in
  non local Contribution for L=           1  read in
    real space projection operators read in
  non local Contribution for L=           1  read in
    real space projection operators read in
  non local Contribution for L=           2  read in
    real space projection operators read in
  non local Contribution for L=           2  read in
    real space projection operators read in
  non local Contribution for L=           3  read in
    real space projection operators read in
  non local Contribution for L=           3  read in
    real space projection operators read in
    PAW grid and wavefunctions read in
 
   number of l-projection  operators is LMAX  =           8
   number of lm-projection operators is LMMAX =          32
 
 POTCAR:    PAW_PBE O 08Apr2002                   
   VRHFIN =O: s2p4                                                              
   LEXCH  = PE                                                                  
   EATOM  =   432.3788 eV,   31.7789 Ry                                         
                                                                                
   TITEL  = PAW_PBE O 08Apr2002                                                 
   LULTRA =        F    use ultrasoft PP ?                                      
   IUNSCR =        1    unscreen: 0-lin 1-nonlin 2-no                           
   RPACOR =    1.200    partial core radius                                     
   POMASS =   16.000; ZVAL   =    6.000    mass and valenz                      
   RCORE  =    1.520    outmost cutoff radius                                   
   RWIGS  =    1.550; RWIGS  =    0.820    wigner-seitz radius (au A)           
   ENMAX  =  400.000; ENMIN  =  300.000 eV                                      
   ICORE  =        2    local potential                                         
   LCOR   =        T    correct aug charges                                     
   LPAW   =        T    paw PP                                                  
   EAUG   =  605.392                                                            
   DEXC   =    0.000                                                            
   RMAX   =    1.553    core radius for proj-oper                               
   RAUG   =    1.300    factor for augmentation sphere                          
   RDEP   =    1.550    radius for radial grids                                 
   RDEPT  =    1.329    core radius for aug-charge                              
                                                                                
   Atomic configuration                                                         
    4 entries                                                                   
     n  l   j            E        occ.                                          
     1  0  0.50      -514.6923   2.0000                                         
     2  0  0.50       -23.9615   2.0000                                         
     2  1  0.50        -9.0305   4.0000                                         
     3  2  1.50        -9.5241   0.0000                                         
   Description                                                                  
     l       E           TYP  RCUT    TYP  RCUT                                 
     0    -23.9615318     23  1.200                                             
     0     -9.5240782     23  1.200                                             
     1     -9.0304911     23  1.520                                             
     1      8.1634956     23  1.520                                             
     2     -9.5240782      7  1.500                                             
  local pseudopotential read in
  partial core-charges read in
  partial kinetic energy density read in
  kinetic energy density of atom read in
  atomic valenz-charges read in
  non local Contribution for L=           0  read in
    real space projection operators read in
  non local Contribution for L=           0  read in
    real space projection operators read in
  non local Contribution for L=           1  read in
    real space projection operators read in
  non local Contribution for L=           1  read in
    real space projection operators read in
    PAW grid and wavefunctions read in
 
   number of l-projection  operators is LMAX  =           4
   number of lm-projection operators is LMMAX =           8
 
 POTCAR:    PAW_PBE Pt 04Feb2005                  
   VRHFIN =Pt: s1d9                                                             
   LEXCH  = PE                                                                  
   EATOM  =   729.1176 eV,   53.5886 Ry                                         
                                                                                
   TITEL  = PAW_PBE Pt 04Feb2005                                                
   LULTRA =        F    use ultrasoft PP ?                                      
   IUNSCR =        1    unscreen: 0-lin 1-nonlin 2-no                           
   RPACOR =    2.330    partial core radius                                     
   POMASS =  195.080; ZVAL   =   10.000    mass and valenz                      
   RCORE  =    2.600    outmost cutoff radius                                   
   RWIGS  =    2.750; RWIGS  =    1.455    wigner-seitz radius (au A)           
   ENMAX  =  230.283; ENMIN  =  172.712 eV                                      
   ICORE  =        3    local potential                                         
   LCOR   =        T    correct aug charges                                     
   LPAW   =        T    paw PP                                                  
   EAUG   =  358.966                                                            
   DEXC   =    0.000                                                            
   RMAX   =    2.658    core radius for proj-oper                               
   RAUG   =    1.300    factor for augmentation sphere                          
   RDEP   =    2.761    radius for radial grids                                 
   RDEPT  =    2.203    core radius for aug-charge                              
                                                                                
   Atomic configuration                                                         
   16 entries                                                                   
     n  l   j            E        occ.                                          
     1  0  0.50    -78401.1885   2.0000                                         
     2  0  0.50    -13770.7750   2.0000                                         
     2  1  1.50    -11931.0468   6.0000                                         
     3  0  0.50     -3234.7234   2.0000                                         
     3  1  1.50     -2699.2216   6.0000                                         
     3  2  2.50     -2119.5714  10.0000                                         
     4  0  0.50      -695.1528   2.0000                                         
     4  1  1.50      -519.6034   6.0000                                         
     4  2  2.50      -306.6786  10.0000                                         
     4  3  3.50       -70.1041  14.0000                                         
     5  0  0.50      -101.7747   2.0000                                         
     5  1  1.50       -55.9873   6.0000                                         
     5  2  2.50        -6.1423   9.0000                                         
     6  0  0.50        -5.6573   1.0000                                         
     6  1  1.50        -6.8029   0.0000                                         
     5  3  2.50        -1.3606   0.0000                                         
   Description                                                                  
     l       E           TYP  RCUT    TYP  RCUT                                 
     2     -6.1423404     23  2.500                                             
     2     -7.5029230     23  2.500                                             
     0     -5.6573207     23  2.500                                             
     0      0.7416693     23  2.500                                             
     1     -2.7211652     23  2.600                                             
     1     20.4087390     23  2.600                                             
     3     -1.3605826     23  2.500                                             
  local pseudopotential read in
  partial core-charges read in
  partial kinetic energy density read in
  atomic valenz-charges read in
  non local Contribution for L=           2  read in
    real space projection operators read in
  non local Contribution for L=           2  read in
    real space projection operators read in
  non local Contribution for L=           0  read in
    real space projection operators read in
  non local Contribution for L=           0  read in
    real space projection operators read in
  non local Contribution for L=           1  read in
    real space projection operators read in
  non local Contribution for L=           1  read in
    real space projection operators read in
    PAW grid and wavefunctions read in
 
   number of l-projection  operators is LMAX  =           6
   number of lm-projection operators is LMMAX =          18
 
 POTCAR:    PAW_PBE C 08Apr2002                   
   VRHFIN =C: s2p2                                                              
   LEXCH  = PE                                                                  
   EATOM  =   147.1560 eV,   10.8157 Ry                                         
                                                                                
   TITEL  = PAW_PBE C 08Apr2002                                                 
   LULTRA =        F    use ultrasoft PP ?                                      
   IUNSCR =        1    unscreen: 0-lin 1-nonlin 2-no                           
   RPACOR =    1.200    partial core radius                                     
   POMASS =   12.011; ZVAL   =    4.000    mass and valenz                      
   RCORE  =    1.500    outmost cutoff radius                                   
   RWIGS  =    1.630; RWIGS  =    0.863    wigner-seitz radius (au A)           
   ENMAX  =  400.000; ENMIN  =  300.000 eV                                      
   ICORE  =        2    local potential                                         
   LCOR   =        T    correct aug charges                                     
   LPAW   =        T    paw PP                                                  
   EAUG   =  644.873                                                            
   DEXC   =    0.000                                                            
   RMAX   =    1.529    core radius for proj-oper                               
   RAUG   =    1.300    factor for augmentation sphere                          
   RDEP   =    1.501    radius for radial grids                                 
   RDEPT  =    1.300    core radius for aug-charge                              
                                                                                
   Atomic configuration                                                         
    4 entries                                                                   
     n  l   j            E        occ.                                          
     1  0  0.50      -273.3789   2.0000                                         
     2  0  0.50       -13.7508   2.0000                                         
     2  1  0.50        -5.2854   2.0000                                         
     3  2  1.50        -5.4423   0.0000                                         
   Description                                                                  
     l       E           TYP  RCUT    TYP  RCUT                                 
     0    -13.7508458     23  1.200                                             
     0     -8.2022199     23  1.200                                             
     1     -5.2854383     23  1.500                                             
     1     34.0145650     23  1.500                                             
     2     -5.4423304      7  1.500                                             
  local pseudopotential read in
  partial core-charges read in
  partial kinetic energy density read in
  atomic valenz-charges read in
  non local Contribution for L=           0  read in
    real space projection operators read in
  non local Contribution for L=           0  read in
    real space projection operators read in
  non local Contribution for L=           1  read in
    real space projection operators read in
  non local Contribution for L=           1  read in
    real space projection operators read in
    PAW grid and wavefunctions read in
 
   number of l-projection  operators is LMAX  =           4
   number of lm-projection operators is LMMAX =           8
 
 POTCAR:    PAW_PBE O 08Apr2002                   
   VRHFIN =O: s2p4                                                              
   LEXCH  = PE                                                                  
   EATOM  =   432.3788 eV,   31.7789 Ry                                         
                                                                                
   TITEL  = PAW_PBE O 08Apr2002                                                 
   LULTRA =        F    use ultrasoft PP ?                                      
   IUNSCR =        1    unscreen: 0-lin 1-nonlin 2-no                           
   RPACOR =    1.200    partial core radius                                     
   POMASS =   16.000; ZVAL   =    6.000    mass and valenz                      
   RCORE  =    1.520    outmost cutoff radius                                   
   RWIGS  =    1.550; RWIGS  =    0.820    wigner-seitz radius (au A)           
   ENMAX  =  400.000; ENMIN  =  300.000 eV                                      
   ICORE  =        2    local potential                                         
   LCOR   =        T    correct aug charges                                     
   LPAW   =        T    paw PP                                                  
   EAUG   =  605.392                                                            
   DEXC   =    0.000                                                            
   RMAX   =    1.553    core radius for proj-oper                               
   RAUG   =    1.300    factor for augmentation sphere                          
   RDEP   =    1.550    radius for radial grids                                 
   RDEPT  =    1.329    core radius for aug-charge                              
                                                                                
   Atomic configuration                                                         
    4 entries                                                                   
     n  l   j            E        occ.                                          
     1  0  0.50      -514.6923   2.0000                                         
     2  0  0.50       -23.9615   2.0000                                         
     2  1  0.50        -9.0305   4.0000                                         
     3  2  1.50        -9.5241   0.0000                                         
   Description                                                                  
     l       E           TYP  RCUT    TYP  RCUT                                 
     0    -23.9615318     23  1.200                                             
     0     -9.5240782     23  1.200                                             
     1     -9.0304911     23  1.520                                             
     1      8.1634956     23  1.520                                             
     2     -9.5240782      7  1.500                                             
  local pseudopotential read in
  partial core-charges read in
  partial kinetic energy density read in
  kinetic energy density of atom read in
  atomic valenz-charges read in
  non local Contribution for L=           0  read in
    real space projection operators read in
  non local Contribution for L=           0  read in
    real space projection operators read in
  non local Contribution for L=           1  read in
    real space projection operators read in
  non local Contribution for L=           1  read in
    real space projection operators read in
    PAW grid and wavefunctions read in
 
   number of l-projection  operators is LMAX  =           4
   number of lm-projection operators is LMMAX =           8
 
 Optimization of the real space projectors (new method)

 maximal supplied QI-value         = 13.98
 optimisation between [QCUT,QGAM] = [ 10.21, 20.42] = [ 29.18,116.73] Ry 
 Optimized for a Real-space Cutoff    1.65 Angstroem

   l    n(q)    QCUT    max X(q) W(low)/X(q) W(high)/X(q)  e(spline) 
   0     10    10.208     8.553    0.18E-04    0.75E-05    0.12E-06
   0     10    10.208     8.106    0.26E-04    0.16E-04    0.24E-06
   1     10    10.208     4.160    0.93E-05    0.96E-06    0.75E-07
   1     10    10.208     3.597    0.23E-04    0.26E-04    0.15E-06
   2      9    10.208     8.183    0.11E-03    0.28E-03    0.51E-06
   2      9    10.208     6.077    0.74E-04    0.19E-03    0.37E-06
   3      9    10.208   116.013    0.19E-03    0.98E-05    0.18E-06
   3      9    10.208   108.937    0.19E-03    0.10E-04    0.18E-06
 Optimization of the real space projectors (new method)

 maximal supplied QI-value         = 24.76
 optimisation between [QCUT,QGAM] = [ 10.15, 20.30] = [ 28.85,115.39] Ry 
 Optimized for a Real-space Cutoff    1.51 Angstroem

   l    n(q)    QCUT    max X(q) W(low)/X(q) W(high)/X(q)  e(spline) 
   0      9    10.150    20.381    0.17E-03    0.18E-03    0.41E-06
   0      9    10.150    15.268    0.18E-03    0.20E-03    0.43E-06
   1      9    10.150     5.964    0.16E-03    0.20E-03    0.36E-06
   1      9    10.150     5.382    0.13E-03    0.16E-03    0.33E-06
 Optimization of the real space projectors (new method)

 maximal supplied QI-value         = 14.36
 optimisation between [QCUT,QGAM] = [ 10.20, 20.39] = [ 29.12,116.47] Ry 
 Optimized for a Real-space Cutoff    1.55 Angstroem

   l    n(q)    QCUT    max X(q) W(low)/X(q) W(high)/X(q)  e(spline) 
   2      9    10.197    66.195    0.14E-03    0.26E-03    0.16E-06
   2      9    10.197    64.643    0.14E-03    0.26E-03    0.16E-06
   0      9    10.197    95.520    0.52E-04    0.23E-04    0.61E-07
   0      9    10.197    63.403    0.50E-04    0.22E-04    0.58E-07
   1      9    10.197    19.961    0.18E-03    0.80E-04    0.90E-07
   1      9    10.197    13.289    0.15E-03    0.68E-04    0.78E-07
 Optimization of the real space projectors (new method)

 maximal supplied QI-value         = 25.13
 optimisation between [QCUT,QGAM] = [ 10.05, 20.36] = [ 28.30,116.06] Ry 
 Optimized for a Real-space Cutoff    1.51 Angstroem

   l    n(q)    QCUT    max X(q) W(low)/X(q) W(high)/X(q)  e(spline) 
   0      9    10.053   115.676    0.19E-03    0.21E-03    0.38E-06
   0      9    10.053    87.132    0.19E-03    0.21E-03    0.38E-06
   1      9    10.053     4.429    0.87E-04    0.11E-03    0.39E-06
   1      9    10.053     2.733    0.59E-04    0.62E-04    0.43E-06
 Optimization of the real space projectors (new method)

 maximal supplied QI-value         = 24.76
 optimisation between [QCUT,QGAM] = [ 10.15, 20.30] = [ 28.85,115.39] Ry 
 Optimized for a Real-space Cutoff    1.51 Angstroem

   l    n(q)    QCUT    max X(q) W(low)/X(q) W(high)/X(q)  e(spline) 
   0      9    10.150    20.381    0.17E-03    0.18E-03    0.41E-06
   0      9    10.150    15.268    0.18E-03    0.20E-03    0.43E-06
   1      9    10.150     5.964    0.16E-03    0.20E-03    0.36E-06
   1      9    10.150     5.382    0.13E-03    0.16E-03    0.33E-06
  PAW_PBE Ce 23Dec2003                  :
 energy of atom  1       EATOM=-1063.0861
 kinetic energy error for atom=    0.0451 (will be added to EATOM!!)
  PAW_PBE O 08Apr2002                   :
 energy of atom  2       EATOM= -432.3788
 kinetic energy error for atom=    0.1156 (will be added to EATOM!!)
  PAW_PBE Pt 04Feb2005                  :
 energy of atom  3       EATOM= -729.1176
 kinetic energy error for atom=    0.0056 (will be added to EATOM!!)
  PAW_PBE C 08Apr2002                   :
 energy of atom  4       EATOM= -147.1560
 kinetic energy error for atom=    0.0288 (will be added to EATOM!!)
  PAW_PBE O 08Apr2002                   :
 energy of atom  5       EATOM= -432.3788
 kinetic energy error for atom=    0.1156 (will be added to EATOM!!)
 
 
 POSCAR: CeO2-110-l3-p23:                        
  positions in direct lattice
  velocities in cartesian coordinates
 exchange correlation table for  LEXCH =        8
   RHO(1)=    0.500       N(1)  =     2000
   RHO(2)=  100.500       N(2)  =     4000

 VTST: version 3.1, (03/28/14)

 CHAIN: initializing optimizer
 
 OPT: Using VASP Conjugate-Gradient optimizer
 CHAIN: Read ICHAIN            0
 
 POSCAR: CeO2-110-l3-p23:                        
  positions in direct lattice
  velocities in cartesian coordinates
 


--------------------------------------------------------------------------------------------------------


 ion  position               nearest neighbor table
   1  0.771  0.167  0.000-  36 2.38  40 2.38  39 2.38  44 2.38  52 2.38  54 2.38
   2  0.771  0.500  0.000-  36 2.38  38 2.38  40 2.38  46 2.38  58 2.38  59 2.38
   3  0.271  0.167  0.000-  41 2.38  45 2.38  43 2.38  37 2.38  50 2.38  51 2.38
   4  0.771  0.833  0.000-  38 2.38  46 2.38  44 2.38  39 2.38  49 2.38  53 2.38
   5  0.271  0.500  0.000-  41 2.38  42 2.38  45 2.38  47 2.38  56 2.38  57 2.38
   6  0.271  0.833  0.000-  42 2.38  47 2.38  43 2.38  37 2.38  48 2.38  55 2.38
   7  0.521  0.000  0.079-  60 2.38  66 2.38  50 2.38  54 2.38  48 2.38  49 2.38  43 2.38  44 2.38

   8  0.521  0.667  0.079-  62 2.38  49 2.38  48 2.38  59 2.38  56 2.38  42 2.38  38 2.38  61 2.38

   9  0.021  0.000  0.079-  64 2.37  65 2.37  53 2.38  55 2.38  51 2.38  52 2.38  37 2.38  39 2.38

  10  0.521  0.333  0.079-  70 2.36  68 2.37  50 2.38  54 2.38  56 2.38  59 2.38  36 2.38  45 2.38

  11  0.021  0.333  0.079-  71 2.37  69 2.38  51 2.38  52 2.38  57 2.38  58 2.38  40 2.38  41 2.38

  12  0.021  0.667  0.079-  67 2.37  63 2.37  53 2.38  55 2.38  57 2.38  58 2.38  46 2.38  47 2.38

  13  0.771  0.167  0.157-  72 2.32  79 2.37  65 2.38  54 2.38  69 2.38  52 2.39  70 2.39  60 2.39

  14  0.770  0.833  0.158-  62 2.35  60 2.36  83 2.36  63 2.38  65 2.38  49 2.38  53 2.39  73 2.42

  15  0.271  0.165  0.157-  78 2.32  82 2.37  64 2.37  51 2.38  50 2.38  71 2.39  66 2.39  68 2.39

  16  0.770  0.501  0.157-  77 2.33  59 2.37  63 2.37  70 2.38  75 2.38  58 2.38  69 2.39  62 2.39

  17  0.271  0.501  0.157-  68 2.37  67 2.37  61 2.37  81 2.37  80 2.37  56 2.38  57 2.38  71 2.39

  18  0.272  0.833  0.158-  66 2.36  76 2.36  61 2.37  74 2.38  67 2.38  48 2.38  64 2.38  55 2.40

  19  0.021  0.668  0.233-  67 2.34  63 2.34  76 2.36  83 2.37  86 2.37  75 2.38  91 2.39  81 2.39

  20  0.520  0.667  0.236-  77 2.33  74 2.34  80 2.36  61 2.38  62 2.39  73 2.40  89 2.44  92 2.46

  21  0.022  0.332  0.233-  71 2.33  69 2.34  79 2.37  94 2.37  82 2.37  93 2.38  81 2.38  75 2.40

  22  0.021  0.999  0.233-  65 2.34  64 2.34  83 2.37  82 2.37  76 2.38  85 2.38  79 2.39  95 2.39

  23  0.522  0.002  0.235-  78 2.35  72 2.35  60 2.36  66 2.36  90 2.36  73 2.38  74 2.43  88 2.44

  24  0.519  0.333  0.232-  84 2.32  68 2.32  70 2.34  78 2.39  80 2.39  72 2.41  87 2.43  77 2.44
                           108 3.09
  25  0.774  0.501  0.314-  84 2.31 105 2.32  75 2.34  89 2.35  91 2.36  93 2.38  77 2.43 109 3.15

  26  0.774  0.171  0.316- 102 2.32  93 2.33  88 2.34  79 2.40  85 2.40  84 2.44  72 2.46 103 2.47
                           108 3.09
  27  0.268  0.499  0.316- 107 2.30  87 2.33  92 2.35  86 2.36  81 2.38  94 2.38  80 2.41
  28  0.271  0.830  0.317-  97 2.32  90 2.37  92 2.37  86 2.37  98 2.37  95 2.38  74 2.42  76 2.45

  29  0.270  0.164  0.316- 100 2.31  87 2.33  95 2.38  90 2.40  94 2.41  82 2.41  99 2.41  78 2.46
                           108 3.13
  30  0.772  0.836  0.317- 101 2.30  96 2.33  85 2.35  73 2.38  91 2.40  88 2.43  89 2.43  83 2.44

  31  0.022  0.999  0.385-  95 2.24  85 2.25 102 2.31 100 2.33 101 2.34  97 2.37
  32  0.515  0.998  0.386-  99 2.21  98 2.22  96 2.25  90 2.26  88 2.26 108 3.17
  33  0.019  0.667  0.385-  91 2.23  86 2.26  97 2.30 101 2.33 107 2.34 105 2.42
  34  0.529  0.684  0.393- 106 2.10  96 2.26  89 2.28  98 2.31  92 2.38 104 2.50
  35  0.021  0.331  0.385-  94 2.23  93 2.26 102 2.32 105 2.34 100 2.35 107 2.37
  36  0.646  0.333  0.000-   1 2.38   2 2.38  10 2.38
  37  0.146  0.000  0.000-   3 2.38   6 2.38   9 2.38
  38  0.646  0.667  0.000-   4 2.38   2 2.38   8 2.38
  39  0.896  0.000  0.000-   1 2.38   4 2.38   9 2.38
  40  0.896  0.333  0.000-   1 2.38   2 2.38  11 2.38
  41  0.146  0.333  0.000-   3 2.38   5 2.38  11 2.38
  42  0.396  0.667  0.000-   6 2.38   5 2.38   8 2.38
  43  0.396  0.000  0.000-   3 2.38   6 2.38   7 2.38
  44  0.646  0.000  0.000-   1 2.38   4 2.38   7 2.38
  45  0.396  0.333  0.000-   3 2.38   5 2.38  10 2.38
  46  0.896  0.667  0.000-   4 2.38   2 2.38  12 2.38
  47  0.146  0.667  0.000-   6 2.38   5 2.38  12 2.38
  48  0.396  0.833  0.079-   8 2.38   7 2.38   6 2.38  18 2.38
  49  0.646  0.833  0.079-   8 2.38   7 2.38   4 2.38  14 2.38
  50  0.396  0.167  0.079-  10 2.38   7 2.38   3 2.38  15 2.38
  51  0.146  0.167  0.079-  11 2.38   9 2.38   3 2.38  15 2.38
  52  0.896  0.167  0.079-  11 2.38   9 2.38   1 2.38  13 2.39
  53  0.896  0.833  0.079-  12 2.38   9 2.38   4 2.38  14 2.39
  54  0.646  0.167  0.079-  10 2.38   7 2.38   1 2.38  13 2.38
  55  0.146  0.833  0.079-  12 2.38   9 2.38   6 2.38  18 2.40
  56  0.396  0.500  0.079-   8 2.38  10 2.38   5 2.38  17 2.38
  57  0.146  0.500  0.079-  11 2.38  12 2.38   5 2.38  17 2.38
  58  0.896  0.500  0.079-  11 2.38  12 2.38   2 2.38  16 2.38
  59  0.646  0.500  0.079-  16 2.37  10 2.38   8 2.38   2 2.38
  60  0.646  0.998  0.157-  14 2.36  23 2.36   7 2.38  13 2.39
  61  0.396  0.666  0.157-  17 2.37  18 2.37   8 2.38  20 2.38
  62  0.646  0.670  0.157-  14 2.35   8 2.38  20 2.39  16 2.39
  63  0.896  0.667  0.157-  19 2.34  16 2.37  12 2.37  14 2.38
  64  0.147  0.999  0.157-  22 2.34  15 2.37   9 2.37  18 2.38
  65  0.896  1.000  0.157-  22 2.34   9 2.37  13 2.38  14 2.38
  66  0.396  0.998  0.157-  18 2.36  23 2.36   7 2.38  15 2.39
  67  0.146  0.666  0.157-  19 2.34  17 2.37  12 2.37  18 2.38
  68  0.395  0.334  0.156-  24 2.32  17 2.37  10 2.37  15 2.39
  69  0.895  0.334  0.157-  21 2.34  11 2.38  13 2.38  16 2.39
  70  0.646  0.334  0.157-  24 2.34  10 2.36  16 2.38  13 2.39
  71  0.146  0.333  0.157-  21 2.33  11 2.37  17 2.39  15 2.39
  72  0.647  0.166  0.234-  13 2.32  23 2.35  24 2.41  26 2.46
  73  0.646  0.835  0.238-  23 2.38  30 2.38  20 2.40  14 2.42
  74  0.396  0.830  0.237-  20 2.34  18 2.38  28 2.42  23 2.43
  75  0.896  0.501  0.236-  25 2.34  16 2.38  19 2.38  21 2.40
  76  0.146  0.832  0.235-  19 2.36  18 2.36  22 2.38  28 2.45
  77  0.646  0.505  0.234-  20 2.33  16 2.33  25 2.43  24 2.44
  78  0.395  0.164  0.233-  15 2.32  23 2.35  24 2.39  29 2.46
  79  0.896  0.167  0.235-  13 2.37  21 2.37  22 2.39  26 2.40
  80  0.395  0.502  0.236-  20 2.36  17 2.37  24 2.39  27 2.41
  81  0.147  0.499  0.236-  17 2.37  27 2.38  21 2.38  19 2.39
  82  0.146  0.165  0.235-  15 2.37  22 2.37  21 2.37  29 2.41
  83  0.896  0.833  0.235-  14 2.36  19 2.37  22 2.37  30 2.44
  84  0.648  0.343  0.307- 108 2.03  25 2.31  24 2.32  26 2.44
  85  0.897  0.000  0.312-  31 2.25  30 2.35  22 2.38  26 2.40
  86  0.144  0.665  0.312-  33 2.26  27 2.36  28 2.37  19 2.37
  87  0.384  0.332  0.310- 108 2.03  27 2.33  29 2.33  24 2.43
  88  0.648  0.009  0.316-  32 2.26  26 2.34  30 2.43  23 2.44
  89  0.647  0.663  0.317-  34 2.28  25 2.35  30 2.43  20 2.44
  90  0.395  0.996  0.312-  32 2.26  23 2.36  28 2.37  29 2.40
  91  0.897  0.667  0.313-  33 2.23  25 2.36  19 2.39  30 2.40
  92  0.394  0.663  0.318-  27 2.35  28 2.37  34 2.38  20 2.46
  93  0.898  0.333  0.312-  35 2.26  26 2.33  25 2.38  21 2.38
  94  0.143  0.333  0.313-  35 2.23  21 2.37  27 2.38  29 2.41
  95  0.146  0.997  0.313-  31 2.24  29 2.38  28 2.38  22 2.39
  96  0.642  0.847  0.392-  32 2.25  34 2.26  30 2.33
  97  0.139  0.829  0.390-  33 2.30  28 2.32  31 2.37
  98  0.401  0.842  0.394-  32 2.22  34 2.31  28 2.37
  99  0.406  0.157  0.392- 108 2.01  32 2.21  29 2.41
 100  0.141  0.164  0.390-  29 2.31  31 2.33  35 2.35
 101  0.903  0.833  0.390-  30 2.30  33 2.33  31 2.34
 102  0.905  0.164  0.389-  31 2.31  26 2.32  35 2.32
 103  0.666  0.229  0.399- 108 1.97 109 2.19  26 2.47
 104  0.417  0.499  0.402- 110 1.30  34 2.50
 105  0.897  0.494  0.390-  25 2.32  35 2.34  33 2.42
 106  0.648  0.578  0.436- 109 1.98  34 2.10
 107  0.140  0.501  0.389-  27 2.30  33 2.34  35 2.37
 108  0.523  0.261  0.353- 103 1.97  99 2.01  84 2.03  87 2.03 109 2.82  24 3.09  26 3.09  29 3.13
                            32 3.17
 109  0.653  0.411  0.421- 106 1.98 110 2.04 103 2.19 108 2.82  25 3.15
 110  0.469  0.424  0.433- 111 1.22 104 1.30 109 2.04
 111  0.429  0.370  0.471- 110 1.22
 

IMPORTANT INFORMATION: All symmetrisations will be switched off!
NOSYMM: (Re-)initialisation of all symmetry stuff for point group C_1.

 
 
 KPOINTS: CeO2-111-3x3-9layers         ! Comment  

Automatic generation of k-mesh.
Space group operators:
 irot       det(A)        alpha          n_x          n_y          n_z        tau_x        tau_y        tau_z
    1     1.000000     0.000000     1.000000     0.000000     0.000000     0.000000     0.000000     0.000000
 
 Subroutine IBZKPT returns following result:
 ===========================================
 
 Found      1 irreducible k-points:
 
 Following reciprocal coordinates:
            Coordinates               Weight
  0.000000  0.000000  0.000000      1.000000
 
 Following cartesian coordinates:
            Coordinates               Weight
  0.000000  0.000000  0.000000      1.000000
 


--------------------------------------------------------------------------------------------------------




 Dimension of arrays:
   k-points           NKPTS =      1   k-points in BZ     NKDIM =      1   number of bands    NBANDS=    592
   number of dos      NEDOS =    301   number of ions     NIONS =    111
   non local maximal  LDIM  =      8   non local SUM 2l+1 LMDIM =     32
   total plane-waves  NPLWV = 933120
   max r-space proj   IRMAX =   5592   max aug-charges    IRDMAX= 143303
   dimension x,y,z NGX =    72 NGY =   80 NGZ =  162
   dimension x,y,z NGXF=   144 NGYF=  160 NGZF=  324
   support grid    NGXF=   288 NGYF=  320 NGZF=  648
   ions per type =              35  72   2   1   1
 NGX,Y,Z   is equivalent  to a cutoff of  10.90, 11.42, 10.90 a.u.
 NGXF,Y,Z  is equivalent  to a cutoff of  21.80, 22.84, 21.80 a.u.


 I would recommend the setting:
   dimension x,y,z NGX =    72 NGY =   76 NGZ =  161
 SYSTEM =  unknown system                          
 POSCAR =  CeO2-110-l3-p23:                        

 Startparameter for this run:
   NWRITE =      2    write-flag & timer
   PREC   = accura    normal or accurate (medium, high low for compatibility)
   ISTART =      1    job   : 0-new  1-cont  2-samecut
   ICHARG =      0    charge: 1-file 2-atom 10-const
   ISPIN  =      2    spin polarized calculation?
   LNONCOLLINEAR =      F non collinear calculations
   LSORBIT =      F    spin-orbit coupling
   INIWAV =      1    electr: 0-lowe 1-rand  2-diag
   LASPH  =      T    aspherical Exc in radial PAW
   METAGGA=      F    non-selfconsistent MetaGGA calc.

 Electronic Relaxation 1
   ENCUT  =  400.0 eV  29.40 Ry    5.42 a.u.  17.91 18.99 40.29*2*pi/ulx,y,z
   ENINI  =  400.0     initial cutoff
   ENAUG  =  644.9 eV  augmentation charge cutoff
   NELM   =    100;   NELMIN=  2; NELMDL=  0     # of ELM steps 
   EDIFF  = 0.1E-03   stopping-criterion for ELM
   LREAL  =      T    real-space projection
   NLSPLINE    = F    spline interpolate recip. space projectors
   LCOMPAT=      F    compatible to vasp.4.4
   GGA_COMPAT  = T    GGA compatible to vasp.4.4-vasp.4.6
   LMAXPAW     = -100 max onsite density
   LMAXMIX     =    6 max onsite mixed and CHGCAR
   VOSKOWN=      0    Vosko Wilk Nusair interpolation
   ROPT   =   -0.00025  -0.00025  -0.00025  -0.00025
   ROPT   =   -0.00025
 Ionic relaxation
   EDIFFG = -.5E-01   stopping-criterion for IOM
   NSW    =    200    number of steps for IOM
   NBLOCK =      1;   KBLOCK =    200    inner block; outer block 
   IBRION =      2    ionic relax: 0-MD 1-quasi-New 2-CG
   NFREE  =      1    steps in history (QN), initial steepest desc. (CG)
   ISIF   =      2    stress and relaxation
   IWAVPR =     11    prediction:  0-non 1-charg 2-wave 3-comb
   ISYM   =      0    0-nonsym 1-usesym 2-fastsym
   LCORR  =      T    Harris-Foulkes like correction to forces

   POTIM  = 0.1000    time-step for ionic-motion
   TEIN   =    0.0    initial temperature
   TEBEG  =    0.0;   TEEND  =   0.0 temperature during run
   SMASS  =  -3.00    Nose mass-parameter (am)
   estimated Nose-frequenzy (Omega)   =  0.10E-29 period in steps =****** mass=  -0.276E-26a.u.
   SCALEE = 1.0000    scale energy and forces
   NPACO  =    256;   APACO  = 16.0  distance and # of slots for P.C.
   PSTRESS=    0.0 pullay stress

  Mass of Ions in am
   POMASS = 140.12 16.00195.08 12.01 16.00
  Ionic Valenz
   ZVAL   =  12.00  6.00 10.00  4.00  6.00
  Atomic Wigner-Seitz radii
   RWIGS  =  -1.00 -1.00 -1.00 -1.00 -1.00
  virtual crystal weights 
   VCA    =   1.00  1.00  1.00  1.00  1.00
   NELECT =     882.0000    total number of electrons
   NUPDOWN=      -1.0000    fix difference up-down

 DOS related values:
   EMIN   =  10.00;   EMAX   =-10.00  energy-range for DOS
   EFERMI =   0.00
   ISMEAR =     0;   SIGMA  =   0.05  broadening in eV -4-tet -1-fermi 0-gaus

 Electronic relaxation 2 (details)
   IALGO  =     68    algorithm
   LDIAG  =      T    sub-space diagonalisation (order eigenvalues)
   LSUBROT=      F    optimize rotation matrix (better conditioning)
   TURBO    =      0    0=normal 1=particle mesh
   IRESTART =      0    0=no restart 2=restart with 2 vectors
   NREBOOT  =      0    no. of reboots
   NMIN     =      0    reboot dimension
   EREF     =   0.00    reference energy to select bands
   IMIX   =      4    mixing-type and parameters
     AMIX     =   0.20;   BMIX     =  0.00
     AMIX_MAG =   0.80;   BMIX_MAG =  0.00
     AMIN     =   0.10
     WC   =   100.;   INIMIX=   1;  MIXPRE=   1;  MAXMIX= -45

 Intra band minimization:
   WEIMIN = 0.0010     energy-eigenvalue tresh-hold
   EBREAK =  0.42E-07  absolut break condition
   DEPER  =   0.30     relativ break condition  

   TIME   =   0.40     timestep for ELM

  volume/ion in A,a.u.               =      28.46       192.06
  Fermi-wavevector in a.u.,A,eV,Ry     =   1.069980  2.021968 15.576718  1.144856
  Thomas-Fermi vector in A             =   2.205676
 
 Write flags
   LWAVE  =      T    write WAVECAR
   LCHARG =      T    write CHGCAR
   LVTOT  =      F    write LOCPOT, total local potential
   LVHAR  =      F    write LOCPOT, Hartree potential only
   LELF   =      F    write electronic localiz. function (ELF)
   LORBIT =     11    0 simple, 1 ext, 2 COOP (PROOUT)


 Dipole corrections
   LMONO  =      F    monopole corrections only (constant potential shift)
   LDIPOL =      T    correct potential (dipole corrections)
   IDIPOL =      3    1-x, 2-y, 3-z, 4-all directions 
   EPSILON=  1.0000000 bulk dielectric constant

 LDA+U is selected, type is set to LDAUTYPE =  2
   angular momentum for each species LDAUL =     3   -1   -1   -1   -1
   U (eV)           for each species LDAUU =   4.5  0.0  0.0  0.0  0.0
   J (eV)           for each species LDAUJ =   0.0  0.0  0.0  0.0  0.0
 Exchange correlation treatment:
   GGA     =    --    GGA type
   LEXCH   =     8    internal setting for exchange type
   VOSKOWN=      0    Vosko Wilk Nusair interpolation
   LHFCALC =     F    Hartree Fock is set to
   LHFONE  =     F    Hartree Fock one center treatment
   AEXX    =    0.0000 exact exchange contribution

 Linear response parameters
   LEPSILON=     F    determine dielectric tensor
   LRPA    =     F    only Hartree local field effects (RPA)
   LNABLA  =     F    use nabla operator in PAW spheres
   LVEL    =     F    velocity operator in full k-point grid
   LINTERFAST=   F  fast interpolation
   KINTER  =     0    interpolate to denser k-point grid
   CSHIFT  =0.1000    complex shift for real part using Kramers Kronig
   OMEGAMAX=  -1.0    maximum frequency
   DEG_THRESHOLD= 0.2000000E-02 threshold for treating states as degnerate
   RTIME   =    0.100 relaxation time in fs

 Orbital magnetization related:
   ORBITALMAG=     F  switch on orbital magnetization
   LCHIMAG   =     F  perturbation theory with respect to B field
   DQ        =  0.001000  dq finite difference perturbation B field



--------------------------------------------------------------------------------------------------------


 conjugate gradient relaxation of ions
   using selective dynamics as specified on POSCAR
 charge density and potential will be updated during run
 spin polarized calculation
 RMM-DIIS sequential band-by-band and
  variant of blocked Davidson during initial phase
 perform sub-space diagonalisation
    before iterative eigenvector-optimisation
 modified Broyden-mixing scheme, WC =      100.0
 initial mixing is a Kerker type mixing with AMIX =  0.2000 and BMIX =      0.0010
 Hartree-type preconditioning will be used
 using additional bands          151
 real space projection scheme for non local part
 use partial core corrections
 calculate Harris-corrections to forces 
   (improved forces if not selfconsistent)
 use gradient corrections 
 use of overlap-Matrix (Vanderbilt PP)
 Gauss-broadening in eV      SIGMA  =   0.05


--------------------------------------------------------------------------------------------------------


  energy-cutoff  :      400.00
  volume of cell :     3159.12
      direct lattice vectors                 reciprocal lattice vectors
    10.980000000  0.000000000  0.000000000     0.091074681  0.000000000  0.000000000
     0.000000000 11.646048686  0.000000000     0.000000000  0.085866033  0.000000000
     0.000000000  0.000000000 24.705040572     0.000000000  0.000000000  0.040477570

  length of vectors
    10.980000000 11.646048686 24.705040572     0.091074681  0.085866033  0.040477570


 
 old parameters found on file WAVECAR:
  energy-cutoff  :      400.00
  volume of cell :     3159.12
      direct lattice vectors                 reciprocal lattice vectors
    10.980000000  0.000000000  0.000000000     0.091074681  0.000000000  0.000000000
     0.000000000 11.646048686  0.000000000     0.000000000  0.085866033  0.000000000
     0.000000000  0.000000000 24.705040572     0.000000000  0.000000000  0.040477570

  length of vectors

 
 k-points in units of 2pi/SCALE and weight: CeO2-111-3x3-9layers         ! Comment  
   0.00000000  0.00000000  0.00000000       1.000
 
 k-points in reciprocal lattice and weights: CeO2-111-3x3-9layers         ! Comment  
   0.00000000  0.00000000  0.00000000       1.000
 
 position of ions in fractional coordinates (direct lattice) 
   0.77120274  0.16666677  0.00000000
   0.77120274  0.50000010  0.00000000
   0.27120274  0.16666677  0.00000000
   0.77120274  0.83333343  0.00000000
   0.27120274  0.50000010  0.00000000
   0.27120274  0.83333343  0.00000000
   0.52120274  0.00000010  0.07856729
   0.52120274  0.66666677  0.07856729
   0.02120274  0.00000010  0.07856729
   0.52120274  0.33333343  0.07856729
   0.02120274  0.33333343  0.07856729
   0.02120274  0.66666677  0.07856729
   0.77073729  0.16654076  0.15746345
   0.77025682  0.83341160  0.15771409
   0.27107815  0.16543901  0.15731965
   0.77004431  0.50125243  0.15705521
   0.27127046  0.50068233  0.15737206
   0.27227367  0.83256734  0.15772960
   0.02116605  0.66751626  0.23334270
   0.52035493  0.66668138  0.23626915
   0.02163185  0.33236520  0.23314782
   0.02113337  0.99892446  0.23341172
   0.52166697  0.00175119  0.23483812
   0.51896524  0.33338289  0.23248212
   0.77447292  0.50093894  0.31357974
   0.77421979  0.17091293  0.31575631
   0.26798571  0.49945344  0.31557699
   0.27088787  0.83000475  0.31722086
   0.26960796  0.16423269  0.31578904
   0.77183614  0.83605364  0.31708450
   0.02174456  0.99930250  0.38458678
   0.51516612  0.99782909  0.38635414
   0.01934222  0.66660245  0.38501478
   0.52940125  0.68426913  0.39284506
   0.02103919  0.33105864  0.38504344
   0.64620274  0.33333343  0.00000000
   0.14620274  0.00000010  0.00000000
   0.64620274  0.66666677  0.00000000
   0.89620274  0.00000010  0.00000000
   0.89620274  0.33333343  0.00000000
   0.14620274  0.33333343  0.00000000
   0.39620274  0.66666677  0.00000000
   0.39620274  0.00000010  0.00000000
   0.64620274  0.00000010  0.00000000
   0.39620274  0.33333343  0.00000000
   0.89620274  0.66666677  0.00000000
   0.14620274  0.66666677  0.00000000
   0.39620274  0.83333343  0.07856729
   0.64620274  0.83333343  0.07856729
   0.39620274  0.16666677  0.07856729
   0.14620274  0.16666677  0.07856729
   0.89620274  0.16666677  0.07856729
   0.89620274  0.83333343  0.07856729
   0.64620274  0.16666677  0.07856729
   0.14620274  0.83333343  0.07856729
   0.39620274  0.50000010  0.07856729
   0.14620274  0.50000010  0.07856729
   0.89620274  0.50000010  0.07856729
   0.64620274  0.50000010  0.07856729
   0.64629328  0.99845229  0.15708589
   0.39612129  0.66627463  0.15722381
   0.64551019  0.66974648  0.15732677
   0.89564480  0.66672067  0.15677041
   0.14657807  0.99940523  0.15678518
   0.89590721  0.99993864  0.15689835
   0.39649392  0.99791543  0.15721296
   0.14619222  0.66610751  0.15684418
   0.39464591  0.33422272  0.15649598
   0.89542424  0.33385518  0.15686864
   0.64569144  0.33418487  0.15655918
   0.14618076  0.33321563  0.15686945
   0.64677614  0.16565848  0.23374249
   0.64613284  0.83471912  0.23845100
   0.39628468  0.82956219  0.23650326
   0.89573007  0.50058018  0.23550441
   0.14608914  0.83228226  0.23505489
   0.64591060  0.50539156  0.23359065
   0.39549100  0.16432923  0.23345093
   0.89644429  0.16694895  0.23524083
   0.39504550  0.50236558  0.23601535
   0.14653311  0.49949492  0.23570387
   0.14552957  0.16545937  0.23524521
   0.89615001  0.83307493  0.23510053
   0.64801729  0.34273092  0.30651541
   0.89687355  0.00002001  0.31231085
   0.14412968  0.66538738  0.31233544
   0.38386840  0.33236003  0.31016261
   0.64764823  0.00883329  0.31637148
   0.64719607  0.66318143  0.31733241
   0.39497354  0.99592069  0.31209615
   0.89685692  0.66718243  0.31279453
   0.39386234  0.66269662  0.31830691
   0.89755499  0.33327327  0.31194847
   0.14250684  0.33253779  0.31277274
   0.14562664  0.99670125  0.31280112
   0.64232729  0.84667630  0.39168600
   0.13874056  0.82857584  0.39045075
   0.40055486  0.84155263  0.39393262
   0.40586893  0.15709528  0.39228994
   0.14078724  0.16420695  0.38965697
   0.90274000  0.83327386  0.38992552
   0.90548260  0.16416134  0.38935815
   0.66559035  0.22867718  0.39884961
   0.41680710  0.49867283  0.40158266
   0.89742134  0.49396690  0.38993399
   0.64848824  0.57784166  0.43641017
   0.13966717  0.50066782  0.38908147
   0.52274715  0.26064171  0.35269883
   0.65267171  0.41074032  0.42092031
   0.46930348  0.42424930  0.43336933
   0.42876214  0.37022399  0.47142185
 
 position of ions in cartesian coordinates  (Angst):
   8.46780604  1.94100927  0.00000000
   8.46780604  5.82302550  0.00000000
   2.97780604  1.94100927  0.00000000
   8.46780604  9.70504173  0.00000000
   2.97780604  5.82302550  0.00000000
   2.97780604  9.70504173  0.00000000
   5.72280604  0.00000116  1.94100811
   5.72280604  7.76403361  1.94100811
   0.23280604  0.00000116  1.94100811
   5.72280604  3.88201739  1.94100811
   0.23280604  3.88201739  1.94100811
   0.23280604  7.76403361  1.94100811
   8.46269540  1.93954176  3.89014100
   8.45741985  9.70595207  3.89633306
   2.97643813  1.92671074  3.88658826
   8.45508651  5.83761025  3.88005535
   2.97854965  5.83097078  3.88788316
   2.98956488  9.69611977  3.89671625
   0.23240328  7.77392685  5.76474091
   5.71349714  7.76420385  5.83703886
   0.23751772  3.87074133  5.75992635
   0.23204441 11.63352295  5.76644605
   5.72790335  0.02039445  5.80168538
   5.69823832  3.88259335  5.74348023
   8.50371265  5.83395924  7.74700019
   8.50093330  1.99046034  7.80077241
   2.94248307  5.81665906  7.79634226
   2.97434885  9.66627573  7.83695419
   2.96029540  1.91266190  7.80158116
   8.47476082  9.73672135  7.83358539
   0.23875522 11.63792558  9.50123212
   5.65652403 11.62076615  9.54489477
   0.21237756  7.76328458  9.51180576
   5.81282567  7.96903156  9.70525320
   0.23101035  3.85552501  9.51251372
   7.09530604  3.88201739  0.00000000
   1.60530604  0.00000116  0.00000000
   7.09530604  7.76403361  0.00000000
   9.84030604  0.00000116  0.00000000
   9.84030604  3.88201739  0.00000000
   1.60530604  3.88201739  0.00000000
   4.35030604  7.76403361  0.00000000
   4.35030604  0.00000116  0.00000000
   7.09530604  0.00000116  0.00000000
   4.35030604  3.88201739  0.00000000
   9.84030604  7.76403361  0.00000000
   1.60530604  7.76403361  0.00000000
   4.35030604  9.70504173  1.94100811
   7.09530604  9.70504173  1.94100811
   4.35030604  1.94100927  1.94100811
   1.60530604  1.94100927  1.94100811
   9.84030604  1.94100927  1.94100811
   9.84030604  9.70504173  1.94100811
   7.09530604  1.94100927  1.94100811
   1.60530604  9.70504173  1.94100811
   4.35030604  5.82302550  1.94100811
   1.60530604  5.82302550  1.94100811
   9.84030604  5.82302550  1.94100811
   7.09530604  5.82302550  1.94100811
   7.09630025 11.62802397  3.88081318
   4.34941182  7.75946678  3.88422052
   7.08770187  7.79990014  3.88676420
   9.83417987  7.76466140  3.87301945
   1.60942716 11.63912202  3.87338434
   9.83706119 11.64533409  3.87618014
   4.35350323 11.62177170  3.88395267
   1.60519059  7.75752053  3.87484174
   4.33321205  3.89237404  3.86623958
   9.83175812  3.88809369  3.87544624
   7.08969204  3.89193326  3.86780085
   1.60506474  3.88064541  3.87546612
   7.10160200  1.92926676  5.77461766
   7.09453855  9.72117955  5.89094165
   4.35120574  9.66112165  5.84282262
   9.83511620  5.82978111  5.81814603
   1.60405881  9.69279970  5.80704065
   7.09209842  5.88581476  5.77086642
   4.34249117  1.91378617  5.76741465
   9.84295833  1.94429555  5.81163418
   4.33759958  5.85057402  5.83076881
   1.60893352  5.81714216  5.82307375
   1.59791468  1.92694787  5.81174242
   9.83972712  9.70203116  5.80816818
   7.11522982  3.99146097  7.57247560
   9.84767153  0.00023304  7.71565229
   1.58254387  7.74913384  7.71625979
   4.21487498  3.87068105  7.66257981
   7.11117757  0.10287294  7.81597033
   7.10621288  7.72344325  7.83971006
   4.33680945 11.59854090  7.71034800
   9.84748894  7.77003905  7.72760149
   4.32460845  7.71779715  7.86378501
   9.85515376  3.88131672  7.70669958
   1.56472507  3.87275130  7.72706316
   1.59898048 11.60763124  7.72776425
   7.05275361  9.86043336  9.67661859
   1.52337140  9.64963459  9.64610160
   4.39809235  9.80076292  9.73212139
   4.45644089  1.82953925  9.69153885
   1.54584393  1.91236212  9.62649118
   9.91208519  9.70434790  9.63312588
   9.94219891  1.91183094  9.61910882
   7.30818208  2.66318557  9.85359587
   4.57654200  5.80756803  9.92111592
   9.85368628  5.75276256  9.63333511
   7.12040087  6.72957212 10.78153107
   1.53354548  5.83080183  9.61227355
   5.73976374  3.03544609  8.71343898
   7.16633533  4.78350180 10.39885342
   5.15295223  4.94082799 10.70640685
   4.70780830  4.31164662 11.64649603
 


--------------------------------------------------------------------------------------------------------


 use parallel FFT for wavefunctions z direction half grid
 k-point  1 :   0.0000 0.0000 0.0000  plane waves:   28608

 maximum and minimum number of plane-waves per node :      4774     4761

 maximum number of plane-waves:     28608
 maximum index in each direction: 
   IXMAX=   17   IYMAX=   18   IZMAX=   40
   IXMIN=  -17   IYMIN=  -18   IZMIN=    0

 NGX is ok and might be reduce to  70
 NGY is ok and might be reduce to  74
 NGZ is ok and might be reduce to 162

 real space projection operators:
  total allocation   :      67397.16 KBytes
  max/ min on nodes  :      11459.69      11099.66


 parallel 3D FFT for wavefunctions:
    minimum data exchange during FFTs selected (reduces bandwidth)
 parallel 3D FFT for charge:
    minimum data exchange during FFTs selected (reduces bandwidth)


 total amount of memory used by VASP on root node   111052. kBytes
========================================================================

   base      :      30000. kBytes
   nonlr-proj:      13712. kBytes
   fftplans  :      26017. kBytes
   grid      :      28730. kBytes
   one-center:        933. kBytes
   wavefun   :      11660. kBytes
 
     INWAV:  cpu time    1.55: real time    1.57
 Broyden mixing: mesh for mixing (old mesh)
   NGX = 35   NGY = 37   NGZ = 81
  (NGX  =144   NGY  =160   NGZ  =324)
  gives a total of 104895 points

 charge density for first step will be calculated from the start-wavefunctions


--------------------------------------------------------------------------------------------------------


 Maximum index for non-local projection operator          906
 Maximum index for augmentation-charges         3240 (set IRDMAX)


--------------------------------------------------------------------------------------------------------


 initial charge from wavefunction
 First call to EWALD:  gamma=   0.121
 Maximum number of real-space cells 4x 3x 2
 Maximum number of reciprocal cells 2x 2x 4

 FEWALD executed in parallel
    FEWALD:  cpu time    0.00: real time    0.00


----------------------------------------- Iteration    1(   1)  ---------------------------------------


    POTLOK:  cpu time    0.32: real time    0.32
    SETDIJ:  cpu time    2.62: real time    2.62
     EDDAV:  cpu time    8.96: real time    8.97
       DOS:  cpu time    0.00: real time    0.00
    CHARGE:  cpu time    1.14: real time    1.14
    MIXING:  cpu time    0.01: real time    0.01
    --------------------------------------------
      LOOP:  cpu time   13.06: real time   13.08

 eigenvalue-minimisations  :  2208
 total energy-change (2. order) :-0.8786530E+03  (-0.3019329E-04)
 number of electron     881.9999993 magnetization       0.0000000
 augmentation part       -9.3907861 magnetization      -0.0000003

 DIPCOR: dipole corrections for dipol
 direction  3 min pos   229,
 dipolmoment           0.000000      0.000000      1.222703 electrons x Angstroem
 Tr[quadrupol]    -19614.007958

 energy correction for charged system         0.000000 eV
 dipol+quadrupol energy correction           -0.042826 eV
 added-field ion interaction          4.565140 eV  (added to PSCEN)


 Broyden mixing:
  rms(total) = 0.41478E-02    rms(broyden)= 0.41455E-02
  rms(prec ) = 0.43039E-02
  weight for this iteration     100.00

 Free energy of the ion-electron system (eV)
  ---------------------------------------------------
  alpha Z        PSCENC =      2249.20428532
  Ewald energy   TEWEN  =    253544.96108991
  -Hartree energ DENC   =   -321149.89755774
  -exchange      EXHF   =         0.00000000
  -V(xc)+E(xc)   XCENC  =      2307.29708501
  PAW double counting   =     67489.73226023   -66630.58177558
  entropy T*S    EENTRO =        -0.00000000
  eigenvalues    EBANDS =     -9056.36833071
  atomic energy  EATOM  =     70366.99992327
  ---------------------------------------------------
  free energy    TOTEN  =      -878.65302029 eV

  energy without entropy =     -878.65302029  energy(sigma->0) =     -878.65302029


--------------------------------------------------------------------------------------------------------




----------------------------------------- Iteration    1(   2)  ---------------------------------------


    POTLOK:  cpu time    0.32: real time    0.32
    SETDIJ:  cpu time    2.61: real time    2.61
    EDDIAG:  cpu time    1.52: real time    1.53
  RMM-DIIS:  cpu time    3.57: real time    3.57
    ORTHCH:  cpu time    0.19: real time    0.19
       DOS:  cpu time    0.00: real time    0.00
    --------------------------------------------
      LOOP:  cpu time    8.21: real time    8.22

 eigenvalue-minimisations  :  1454
 total energy-change (2. order) : 0.3823705E-05  (-0.2549474E-04)
 number of electron     881.9999993 magnetization       0.0000000
 augmentation part       -9.3907861 magnetization      -0.0000003

 DIPCOR: dipole corrections for dipol
 direction  3 min pos   229,
 dipolmoment           0.000000      0.000000      1.222392 electrons x Angstroem
 Tr[quadrupol]    -19614.007730

 energy correction for charged system         0.000000 eV
 dipol+quadrupol energy correction           -0.042804 eV
 added-field ion interaction          4.563977 eV  (added to PSCEN)


 Free energy of the ion-electron system (eV)
  ---------------------------------------------------
  alpha Z        PSCENC =      2249.20314390
  Ewald energy   TEWEN  =    253544.96108991
  -Hartree energ DENC   =   -321149.88879292
  -exchange      EXHF   =         0.00000000
  -V(xc)+E(xc)   XCENC  =      2307.29747941
  PAW double counting   =     67489.74799559   -66630.59544770
  entropy T*S    EENTRO =        -0.00000000
  eigenvalues    EBANDS =     -9056.37840793
  atomic energy  EATOM  =     70366.99992327
  ---------------------------------------------------
  free energy    TOTEN  =      -878.65301647 eV

  energy without entropy =     -878.65301647  energy(sigma->0) =     -878.65301647


--------------------------------------------------------------------------------------------------------




 average (electrostatic) potential at core
  the test charge radii are     1.1513  0.7215  1.2059  0.6991  0.7215
  (the norm of the test charge is              1.0000)
       1 -84.8741       2 -84.8797       3 -84.8771       4 -84.8713       5 -84.8752
       6 -84.8718       7 -84.5060       8 -84.5032       9 -84.5017      10 -84.5125
      11 -84.5091      12 -84.5070      13 -84.5646      14 -84.6022      15 -84.5663
      16 -84.5889      17 -84.6019      18 -84.5912      19 -84.6033      20 -84.6093
      21 -84.5854      22 -84.5870      23 -84.5861      24 -84.4402      25 -84.5374
      26 -84.5129      27 -84.7002      28 -84.5833      29 -84.4274      30 -84.5859
      31 -84.5820      32 -84.2901      33 -84.6660      34 -84.0655      35 -84.6416
      36 -73.3935      37 -73.3876      38 -73.3904      39 -73.3863      40 -73.3925
      41 -73.3921      42 -73.3889      43 -73.3892      44 -73.3882      45 -73.3932
      46 -73.3891      47 -73.3882      48 -73.7317      49 -73.7261      50 -73.7473
      51 -73.7468      52 -73.7340      53 -73.7140      54 -73.7451      55 -73.7135
      56 -73.7416      57 -73.7436      58 -73.7441      59 -73.7710      60 -73.7348
      61 -73.7047      62 -73.6967      63 -73.7765      64 -73.7576      65 -73.7541
      66 -73.7167      67 -73.7897      68 -73.7930      69 -73.7330      70 -73.7537
      71 -73.7555      72 -73.5931      73 -73.6727      74 -73.6416      75 -73.7400
      76 -73.6469      77 -73.6519      78 -73.6301      79 -73.6665      80 -73.6798
      81 -73.6913      82 -73.6604      83 -73.6672      84 -74.3029      85 -73.9316
      86 -73.9932      87 -74.2662      88 -73.8450      89 -73.8101      90 -73.8922
      91 -74.0027      92 -73.6961      93 -74.0133      94 -73.9298      95 -73.9517
      96 -73.5216      97 -73.3825      98 -73.4513      99 -73.8990     100 -73.3473
     101 -73.4139     102 -73.4056     103 -73.9717     104 -74.7399     105 -73.4472
     106 -73.5185     107 -73.4306     108 -73.0010     109 -71.8910     110 -55.8766
     111 -74.3417
 
 
 
 E-fermi :   1.3830     XC(G=0):  -5.9472     alpha+bet : -7.4954


 spin component 1

 k-point     1 :       0.0000    0.0000    0.0000
  band No.  band energies     occupation 
      1     -34.2123      1.00000
      2     -34.2078      1.00000
      3     -34.1752      1.00000
      4     -34.1736      1.00000
      5     -34.1699      1.00000
      6     -34.1686      1.00000
      7     -33.9801      1.00000
      8     -33.9284      1.00000
      9     -33.8859      1.00000
     10     -33.8663      1.00000
     11     -33.8305      1.00000
     12     -33.7865      1.00000
     13     -33.7696      1.00000
     14     -33.7636      1.00000
     15     -33.7591      1.00000
     16     -33.7573      1.00000
     17     -33.7417      1.00000
     18     -33.7347      1.00000
     19     -33.7281      1.00000
     20     -33.7153      1.00000
     21     -33.7139      1.00000
     22     -33.7108      1.00000
     23     -33.7059      1.00000
     24     -33.6953      1.00000
     25     -33.6895      1.00000
     26     -33.6851      1.00000
     27     -33.6625      1.00000
     28     -33.6466      1.00000
     29     -33.6357      1.00000
     30     -33.6284      1.00000
     31     -33.6203      1.00000
     32     -33.6183      1.00000
     33     -33.6147      1.00000
     34     -33.6117      1.00000
     35     -33.4833      1.00000
     36     -20.8729      1.00000
     37     -19.2424      1.00000
     38     -19.2275      1.00000
     39     -19.1675      1.00000
     40     -19.0657      1.00000
     41     -19.0513      1.00000
     42     -18.9805      1.00000
     43     -18.9659      1.00000
     44     -18.9526      1.00000
     45     -18.9109      1.00000
     46     -18.8626      1.00000
     47     -18.8383      1.00000
     48     -18.8276      1.00000
     49     -18.7682      1.00000
     50     -18.7578      1.00000
     51     -18.7312      1.00000
     52     -18.7148      1.00000
     53     -18.7004      1.00000
     54     -18.6750      1.00000
     55     -18.6679      1.00000
     56     -18.6547      1.00000
     57     -18.6441      1.00000
     58     -18.6148      1.00000
     59     -18.5856      1.00000
     60     -18.5765      1.00000
     61     -18.5387      1.00000
     62     -18.5209      1.00000
     63     -18.4876      1.00000
     64     -18.4723      1.00000
     65     -18.4282      1.00000
     66     -18.4186      1.00000
     67     -18.4085      1.00000
     68     -18.3623      1.00000
     69     -18.3539      1.00000
     70     -18.3023      1.00000
     71     -18.2707      1.00000
     72     -18.2529      1.00000
     73     -18.2488      1.00000
     74     -18.2460      1.00000
     75     -18.2365      1.00000
     76     -18.1576      1.00000
     77     -18.1534      1.00000
     78     -18.1236      1.00000
     79     -18.0799      1.00000
     80     -17.9339      1.00000
     81     -17.9046      1.00000
     82     -17.8841      1.00000
     83     -17.8375      1.00000
     84     -17.7941      1.00000
     85     -17.7778      1.00000
     86     -17.5837      1.00000
     87     -17.5300      1.00000
     88     -17.5072      1.00000
     89     -17.2840      1.00000
     90     -17.2220      1.00000
     91     -17.1257      1.00000
     92     -17.1062      1.00000
     93     -17.0912      1.00000
     94     -17.0456      1.00000
     95     -16.9501      1.00000
     96     -16.9404      1.00000
     97     -16.9101      1.00000
     98     -16.8618      1.00000
     99     -16.8205      1.00000
    100     -16.8013      1.00000
    101     -16.7547      1.00000
    102     -16.7483      1.00000
    103     -16.7289      1.00000
    104     -16.6973      1.00000
    105     -16.6341      1.00000
    106     -16.5638      1.00000
    107     -16.5250      1.00000
    108     -16.4860      1.00000
    109     -16.4846      1.00000
    110     -16.4772      1.00000
    111     -16.4688      1.00000
    112     -16.4485      1.00000
    113     -16.4344      1.00000
    114     -16.4260      1.00000
    115     -16.4061      1.00000
    116     -16.4023      1.00000
    117     -16.3864      1.00000
    118     -16.3798      1.00000
    119     -16.3728      1.00000
    120     -16.3582      1.00000
    121     -16.3396      1.00000
    122     -16.3173      1.00000
    123     -16.3106      1.00000
    124     -16.2975      1.00000
    125     -16.2910      1.00000
    126     -16.2800      1.00000
    127     -16.2664      1.00000
    128     -16.2604      1.00000
    129     -16.2393      1.00000
    130     -16.2288      1.00000
    131     -16.2203      1.00000
    132     -16.1918      1.00000
    133     -16.1817      1.00000
    134     -16.1720      1.00000
    135     -16.1627      1.00000
    136     -16.1574      1.00000
    137     -16.1432      1.00000
    138     -16.1217      1.00000
    139     -16.0887      1.00000
    140     -16.0821      1.00000
    141     -16.0490      1.00000
    142     -16.0403      1.00000
    143     -15.9863      1.00000
    144     -15.9598      1.00000
    145     -15.9561      1.00000
    146     -15.9147      1.00000
    147     -15.9067      1.00000
    148     -15.8037      1.00000
    149     -15.7825      1.00000
    150     -15.7623      1.00000
    151     -15.7003      1.00000
    152     -15.6527      1.00000
    153     -15.6203      1.00000
    154     -15.5605      1.00000
    155     -15.4544      1.00000
    156     -15.4005      1.00000
    157     -15.3882      1.00000
    158     -15.3620      1.00000
    159     -15.3545      1.00000
    160     -15.3125      1.00000
    161     -15.2619      1.00000
    162     -15.1949      1.00000
    163     -15.0493      1.00000
    164     -14.9677      1.00000
    165     -14.8867      1.00000
    166     -14.8436      1.00000
    167     -14.7498      1.00000
    168     -14.6788      1.00000
    169     -14.6559      1.00000
    170     -14.5686      1.00000
    171     -14.4883      1.00000
    172     -14.4367      1.00000
    173     -14.3599      1.00000
    174     -14.2996      1.00000
    175     -14.2423      1.00000
    176     -14.2090      1.00000
    177     -14.1735      1.00000
    178     -14.1478      1.00000
    179     -14.1339      1.00000
    180     -14.1210      1.00000
    181     -14.0909      1.00000
    182     -14.0680      1.00000
    183     -14.0511      1.00000
    184     -14.0388      1.00000
    185     -14.0255      1.00000
    186     -14.0078      1.00000
    187     -13.9615      1.00000
    188     -13.9392      1.00000
    189     -13.9164      1.00000
    190     -13.8824      1.00000
    191     -13.8401      1.00000
    192     -13.8343      1.00000
    193     -13.8219      1.00000
    194     -13.8088      1.00000
    195     -13.8019      1.00000
    196     -13.7278      1.00000
    197     -13.7154      1.00000
    198     -13.6561      1.00000
    199     -13.6294      1.00000
    200     -13.5990      1.00000
    201     -13.5503      1.00000
    202     -13.5439      1.00000
    203     -13.5170      1.00000
    204     -13.4580      1.00000
    205     -13.4165      1.00000
    206     -13.3903      1.00000
    207     -13.2670      1.00000
    208     -13.2335      1.00000
    209     -13.1602      1.00000
    210     -13.1503      1.00000
    211     -13.1351      1.00000
    212     -13.0386      1.00000
    213     -12.8352      1.00000
    214      -7.6059      1.00000
    215      -5.7070      1.00000
    216      -5.1709      1.00000
    217      -4.9235      1.00000
    218      -4.8472      1.00000
    219      -4.8377      1.00000
    220      -4.5323      1.00000
    221      -4.1926      1.00000
    222      -4.0998      1.00000
    223      -4.0278      1.00000
    224      -3.9794      1.00000
    225      -3.9487      1.00000
    226      -3.8864      1.00000
    227      -3.8224      1.00000
    228      -3.7549      1.00000
    229      -3.7474      1.00000
    230      -3.7184      1.00000
    231      -3.6800      1.00000
    232      -3.6120      1.00000
    233      -3.5262      1.00000
    234      -3.4888      1.00000
    235      -3.4670      1.00000
    236      -3.4197      1.00000
    237      -3.4060      1.00000
    238      -3.3935      1.00000
    239      -3.3812      1.00000
    240      -3.3723      1.00000
    241      -3.3474      1.00000
    242      -3.3362      1.00000
    243      -3.3205      1.00000
    244      -3.3190      1.00000
    245      -3.2954      1.00000
    246      -3.2840      1.00000
    247      -3.2756      1.00000
    248      -3.2559      1.00000
    249      -3.2415      1.00000
    250      -3.2236      1.00000
    251      -3.2062      1.00000
    252      -3.1844      1.00000
    253      -3.1662      1.00000
    254      -3.1550      1.00000
    255      -3.1472      1.00000
    256      -3.1364      1.00000
    257      -3.1156      1.00000
    258      -3.1018      1.00000
    259      -3.0836      1.00000
    260      -3.0756      1.00000
    261      -3.0597      1.00000
    262      -3.0500      1.00000
    263      -3.0147      1.00000
    264      -3.0094      1.00000
    265      -2.9846      1.00000
    266      -2.9826      1.00000
    267      -2.9750      1.00000
    268      -2.9565      1.00000
    269      -2.9484      1.00000
    270      -2.9374      1.00000
    271      -2.9140      1.00000
    272      -2.8875      1.00000
    273      -2.8544      1.00000
    274      -2.8444      1.00000
    275      -2.8375      1.00000
    276      -2.8050      1.00000
    277      -2.7522      1.00000
    278      -2.7315      1.00000
    279      -2.7297      1.00000
    280      -2.6921      1.00000
    281      -2.6705      1.00000
    282      -2.6474      1.00000
    283      -2.6412      1.00000
    284      -2.6156      1.00000
    285      -2.6005      1.00000
    286      -2.5763      1.00000
    287      -2.5517      1.00000
    288      -2.5459      1.00000
    289      -2.5238      1.00000
    290      -2.5169      1.00000
    291      -2.5114      1.00000
    292      -2.4744      1.00000
    293      -2.4541      1.00000
    294      -2.4264      1.00000
    295      -2.4158      1.00000
    296      -2.3887      1.00000
    297      -2.3762      1.00000
    298      -2.3544      1.00000
    299      -2.3380      1.00000
    300      -2.2839      1.00000
    301      -2.2692      1.00000
    302      -2.2589      1.00000
    303      -2.2490      1.00000
    304      -2.2317      1.00000
    305      -2.2150      1.00000
    306      -2.1774      1.00000
    307      -2.1722      1.00000
    308      -2.1565      1.00000
    309      -2.1088      1.00000
    310      -2.0976      1.00000
    311      -2.0868      1.00000
    312      -2.0766      1.00000
    313      -2.0522      1.00000
    314      -2.0370      1.00000
    315      -2.0190      1.00000
    316      -2.0024      1.00000
    317      -1.9904      1.00000
    318      -1.9832      1.00000
    319      -1.9549      1.00000
    320      -1.9394      1.00000
    321      -1.9306      1.00000
    322      -1.9257      1.00000
    323      -1.9053      1.00000
    324      -1.8986      1.00000
    325      -1.8929      1.00000
    326      -1.8860      1.00000
    327      -1.8697      1.00000
    328      -1.8666      1.00000
    329      -1.8622      1.00000
    330      -1.8396      1.00000
    331      -1.8382      1.00000
    332      -1.8010      1.00000
    333      -1.7810      1.00000
    334      -1.7620      1.00000
    335      -1.7548      1.00000
    336      -1.7401      1.00000
    337      -1.7148      1.00000
    338      -1.7099      1.00000
    339      -1.6955      1.00000
    340      -1.6711      1.00000
    341      -1.6416      1.00000
    342      -1.6336      1.00000
    343      -1.5943      1.00000
    344      -1.5919      1.00000
    345      -1.5815      1.00000
    346      -1.5589      1.00000
    347      -1.5544      1.00000
    348      -1.5326      1.00000
    349      -1.5223      1.00000
    350      -1.5038      1.00000
    351      -1.4662      1.00000
    352      -1.4535      1.00000
    353      -1.4310      1.00000
    354      -1.4121      1.00000
    355      -1.4023      1.00000
    356      -1.3966      1.00000
    357      -1.3902      1.00000
    358      -1.3736      1.00000
    359      -1.3612      1.00000
    360      -1.3420      1.00000
    361      -1.3252      1.00000
    362      -1.3122      1.00000
    363      -1.2945      1.00000
    364      -1.2875      1.00000
    365      -1.2717      1.00000
    366      -1.2600      1.00000
    367      -1.2518      1.00000
    368      -1.2442      1.00000
    369      -1.2251      1.00000
    370      -1.2224      1.00000
    371      -1.1964      1.00000
    372      -1.1715      1.00000
    373      -1.1670      1.00000
    374      -1.1591      1.00000
    375      -1.1485      1.00000
    376      -1.1182      1.00000
    377      -1.1113      1.00000
    378      -1.1066      1.00000
    379      -1.1004      1.00000
    380      -1.0876      1.00000
    381      -1.0847      1.00000
    382      -1.0823      1.00000
    383      -1.0650      1.00000
    384      -1.0610      1.00000
    385      -1.0578      1.00000
    386      -1.0454      1.00000
    387      -1.0258      1.00000
    388      -1.0173      1.00000
    389      -1.0016      1.00000
    390      -0.9766      1.00000
    391      -0.9694      1.00000
    392      -0.9334      1.00000
    393      -0.9147      1.00000
    394      -0.8693      1.00000
    395      -0.8583      1.00000
    396      -0.8529      1.00000
    397      -0.8442      1.00000
    398      -0.8309      1.00000
    399      -0.8068      1.00000
    400      -0.7980      1.00000
    401      -0.7879      1.00000
    402      -0.7778      1.00000
    403      -0.7684      1.00000
    404      -0.7647      1.00000
    405      -0.7559      1.00000
    406      -0.7483      1.00000
    407      -0.7369      1.00000
    408      -0.7257      1.00000
    409      -0.7000      1.00000
    410      -0.6739      1.00000
    411      -0.6518      1.00000
    412      -0.6351      1.00000
    413      -0.6214      1.00000
    414      -0.6114      1.00000
    415      -0.5977      1.00000
    416      -0.5889      1.00000
    417      -0.5799      1.00000
    418      -0.5743      1.00000
    419      -0.5625      1.00000
    420      -0.5496      1.00000
    421      -0.5346      1.00000
    422      -0.5252      1.00000
    423      -0.5196      1.00000
    424      -0.4881      1.00000
    425      -0.4767      1.00000
    426      -0.4651      1.00000
    427      -0.4546      1.00000
    428      -0.4210      1.00000
    429      -0.3926      1.00000
    430      -0.3347      1.00000
    431      -0.2564      1.00000
    432      -0.1470      1.00000
    433      -0.0143      1.00000
    434      -0.0113      1.00000
    435       0.0426      1.00000
    436       0.1412      1.00000
    437       0.2958      1.00000
    438       0.4397      1.00000
    439       0.4572      1.00000
    440       0.9476      1.00000
    441       1.1565      1.00000
    442       1.6105      0.00000
    443       1.7002      0.00000
    444       1.7024      0.00000
    445       1.7039      0.00000
    446       1.7075      0.00000
    447       1.7168      0.00000
    448       1.7193      0.00000
    449       1.7212      0.00000
    450       1.7407      0.00000
    451       1.7441      0.00000
    452       1.7857      0.00000
    453       1.7950      0.00000
    454       1.7980      0.00000
    455       1.7995      0.00000
    456       1.8182      0.00000
    457       1.8214      0.00000
    458       1.8269      0.00000
    459       1.8300      0.00000
    460       1.8334      0.00000
    461       1.8666      0.00000
    462       1.8694      0.00000
    463       1.8978      0.00000
    464       1.9025      0.00000
    465       1.9066      0.00000
    466       1.9089      0.00000
    467       1.9101      0.00000
    468       1.9132      0.00000
    469       1.9159      0.00000
    470       1.9227      0.00000
    471       1.9257      0.00000
    472       1.9305      0.00000
    473       1.9320      0.00000
    474       1.9379      0.00000
    475       1.9392      0.00000
    476       1.9434      0.00000
    477       1.9480      0.00000
    478       1.9504      0.00000
    479       1.9582      0.00000
    480       1.9613      0.00000
    481       1.9694      0.00000
    482       1.9755      0.00000
    483       1.9850      0.00000
    484       1.9897      0.00000
    485       1.9949      0.00000
    486       2.0033      0.00000
    487       2.0059      0.00000
    488       2.0130      0.00000
    489       2.0216      0.00000
    490       2.0236      0.00000
    491       2.0295      0.00000
    492       2.0321      0.00000
    493       2.0339      0.00000
    494       2.0367      0.00000
    495       2.0471      0.00000
    496       2.0492      0.00000
    497       2.0548      0.00000
    498       2.0590      0.00000
    499       2.0610      0.00000
    500       2.0631      0.00000
    501       2.0643      0.00000
    502       2.0695      0.00000
    503       2.0732      0.00000
    504       2.0751      0.00000
    505       2.0811      0.00000
    506       2.0843      0.00000
    507       2.0862      0.00000
    508       2.0879      0.00000
    509       2.0930      0.00000
    510       2.0950      0.00000
    511       2.0998      0.00000
    512       2.1020      0.00000
    513       2.1060      0.00000
    514       2.1118      0.00000
    515       2.1129      0.00000
    516       2.1157      0.00000
    517       2.1180      0.00000
    518       2.1216      0.00000
    519       2.1239      0.00000
    520       2.1278      0.00000
    521       2.1318      0.00000
    522       2.1340      0.00000
    523       2.1376      0.00000
    524       2.1407      0.00000
    525       2.1426      0.00000
    526       2.1445      0.00000
    527       2.1470      0.00000
    528       2.1495      0.00000
    529       2.1504      0.00000
    530       2.1520      0.00000
    531       2.1550      0.00000
    532       2.1560      0.00000
    533       2.1611      0.00000
    534       2.1634      0.00000
    535       2.1641      0.00000
    536       2.1661      0.00000
    537       2.1668      0.00000
    538       2.1686      0.00000
    539       2.1743      0.00000
    540       2.1780      0.00000
    541       2.1787      0.00000
    542       2.1823      0.00000
    543       2.1847      0.00000
    544       2.1901      0.00000
    545       2.1940      0.00000
[...]
      9.84031      0.00000      0.00000        -1.140816      0.007387     -0.463933
      9.84031      3.88202      0.00000        -1.140405      0.005253     -0.460418
      1.60531      3.88202      0.00000         1.141013     -0.001952     -0.456769
      4.35031      7.76403      0.00000        -1.138967     -0.004073     -0.457982
      4.35031      0.00000      0.00000        -1.138451      0.006904     -0.456827
      7.09531      0.00000      0.00000         1.140072      0.007270     -0.457671
      4.35031      3.88202      0.00000        -1.138852     -0.002349     -0.458899
      9.84031      7.76403      0.00000        -1.141097     -0.009613     -0.461818
      1.60531      7.76403      0.00000         1.141796     -0.006977     -0.460356
      4.35031      9.70504      1.94101        -0.348066     -0.033649     -0.343141
      7.09531      9.70504      1.94101         0.361187      0.017077     -0.382785
      4.35031      1.94101      1.94101        -0.337180     -0.038927     -0.289078
      1.60531      1.94101      1.94101         0.344965     -0.014036     -0.335121
      9.84031      1.94101      1.94101        -0.342230      0.004052     -0.329652
      9.84031      9.70504      1.94101        -0.377784     -0.000085     -0.296955
      7.09531      1.94101      1.94101         0.336769     -0.020478     -0.303388
      1.60531      9.70504      1.94101         0.374892     -0.028148     -0.308833
      4.35031      5.82303      1.94101        -0.347702      0.025005     -0.339096
      1.60531      5.82303      1.94101         0.359871      0.001666     -0.322137
      9.84031      5.82303      1.94101        -0.359088      0.020696     -0.347818
      7.09531      5.82303      1.94101         0.343215      0.074950     -0.313935
      7.09630     11.62802      3.88081        -0.000499      0.000305      0.000051
      4.34941      7.75947      3.88422         0.003047      0.000601     -0.002167
      7.08770      7.79990      3.88676         0.002576      0.000776     -0.000611
      9.83418      7.76466      3.87302         0.002355      0.000437      0.000405
      1.60943     11.63912      3.87338         0.003596     -0.006766      0.000204
      9.83706     11.64533      3.87618         0.000145     -0.001173     -0.002690
      4.35350     11.62177      3.88395         0.002122      0.003459     -0.004167
      1.60519      7.75752      3.87484         0.003292      0.003664     -0.002752
      4.33321      3.89237      3.86624         0.004210      0.003378     -0.001177
      9.83176      3.88809      3.87545         0.003570      0.003926     -0.001693
      7.08969      3.89193      3.86780         0.002719     -0.001205     -0.000063
      1.60506      3.88065      3.87547         0.000795     -0.001213     -0.002315
      7.10160      1.92927      5.77462         0.001351      0.000800     -0.001013
      7.09454      9.72118      5.89094        -0.000302     -0.000799     -0.002021
      4.35121      9.66112      5.84282         0.001082     -0.001013     -0.001733
      9.83512      5.82978      5.81815         0.003948     -0.000851     -0.001041
      1.60406      9.69280      5.80704         0.003710      0.000538     -0.002785
      7.09210      5.88581      5.77087         0.003666      0.000794      0.001935
      4.34249      1.91379      5.76741         0.000543      0.001307      0.001625
      9.84296      1.94430      5.81163         0.004667     -0.004475     -0.004651
      4.33760      5.85057      5.83077         0.002340      0.003852     -0.002696
      1.60893      5.81714      5.82307         0.002628      0.002053      0.005462
      1.59791      1.92695      5.81174         0.002829      0.001413     -0.000654
      9.83973      9.70203      5.80817         0.005836      0.000297      0.002173
      7.11523      3.99146      7.57248         0.001963     -0.004456      0.006496
      9.84767      0.00023      7.71565         0.005627     -0.001249     -0.000371
      1.58254      7.74913      7.71626        -0.000093      0.004208     -0.002906
      4.21487      3.87068      7.66258         0.014257     -0.002643      0.010104
      7.11118      0.10287      7.81597         0.004244     -0.003775      0.003993
      7.10621      7.72344      7.83971         0.010031      0.000709     -0.000555
      4.33681     11.59854      7.71035         0.008000      0.003633      0.003070
      9.84749      7.77004      7.72760         0.005950     -0.000374      0.002619
      4.32461      7.71780      7.86379         0.007959     -0.008439      0.007001
      9.85515      3.88132      7.70670         0.004897      0.000193      0.003161
      1.56473      3.87275      7.72706        -0.002396     -0.000360      0.003698
      1.59898     11.60763      7.72776        -0.000938      0.003547      0.000094
      7.05275      9.86043      9.67662         0.004204      0.007039      0.002403
      1.52337      9.64963      9.64610         0.006115      0.003406      0.004123
      4.39809      9.80076      9.73212         0.007637      0.006143      0.001688
      4.45644      1.82954      9.69154         0.001977     -0.008057      0.008933
      1.54584      1.91236      9.62649         0.000159      0.001298      0.000184
      9.91209      9.70435      9.63313         0.006479      0.004141      0.006463
      9.94220      1.91183      9.61911        -0.000636      0.003513      0.004154
      7.30818      2.66319      9.85360         0.002526     -0.028012      0.020328
      4.57654      5.80757      9.92112        -0.010882      0.000718      0.015306
      9.85369      5.75276      9.63334        -0.000702      0.003176     -0.000976
      7.12040      6.72957     10.78153        -0.004602     -0.011791     -0.002855
      1.53355      5.83080      9.61227         0.003909      0.003299     -0.000511
      5.73976      3.03545      8.71344        -0.028039      0.008001     -0.016986
      7.16634      4.78350     10.39885        -0.025891     -0.020544      0.010889
      5.15295      4.94083     10.70641        -0.008536     -0.006300      0.023715
      4.70781      4.31165     11.64650        -0.023857      0.012342      0.016537
 -----------------------------------------------------------------------------------
    total drift:                               -0.206940     -0.085007     -0.060800


--------------------------------------------------------------------------------------------------------



  FREE ENERGIE OF THE ION-ELECTRON SYSTEM (eV)
  ---------------------------------------------------
  free  energy   TOTEN  =      -899.74121147 eV

  energy  without entropy=     -899.74121147  energy(sigma->0) =     -899.74121147
 


--------------------------------------------------------------------------------------------------------


    POTLOK:  cpu time    2.96: real time    2.96


--------------------------------------------------------------------------------------------------------


 stress matrix after NEB project (eV)
    -72.03042      1.78682      0.20781
      1.78683   -120.51499     -0.33304
      0.20780     -0.33304    -66.65729
  FORCES: max atom, RMS     0.034799    0.008702
  FORCE total and by dimension    0.091677    0.028039
  Stress total and by dimension  155.441733  120.514991


--------------------------------------------------------------------------------------------------------


  
 reached required accuracy - stopping structural energy minimisation
 writing wavefunctions
     LOOP+:  cpu time   66.44: real time   69.28
    4ORBIT:  cpu time    0.00: real time    0.00
 


 total charge     
 
# of ion     s       p       d       f       tot
------------------------------------------------
  1        1.992   5.764   0.872   0.773   9.401
  2        1.992   5.764   0.872   0.774   9.402
  3        1.992   5.764   0.872   0.774   9.402
  4        1.992   5.764   0.873   0.774   9.402
  5        1.992   5.764   0.872   0.773   9.401
  6        1.992   5.764   0.872   0.774   9.402
  7        1.993   5.818   0.902   0.722   9.436
  8        1.993   5.818   0.902   0.722   9.435
  9        1.994   5.819   0.904   0.722   9.438
 10        1.994   5.819   0.906   0.723   9.441
 11        1.994   5.819   0.903   0.722   9.437
 12        1.994   5.819   0.904   0.722   9.439
 13        1.995   5.820   0.914   0.727   9.455
 14        1.994   5.819   0.909   0.724   9.447
 15        1.995   5.820   0.915   0.728   9.457
 16        1.995   5.820   0.914   0.726   9.455
 17        1.995   5.820   0.913   0.725   9.453
 18        1.994   5.820   0.910   0.724   9.448
 19        1.996   5.821   0.925   0.729   9.470
 20        1.993   5.817   0.902   0.725   9.437
 21        1.996   5.822   0.925   0.729   9.472
 22        1.995   5.821   0.922   0.728   9.466
 23        1.994   5.819   0.907   0.726   9.446
 24        1.995   5.819   0.925   0.745   9.484
 25        1.996   5.809   0.921   0.743   9.469
 26        1.992   5.815   0.908   0.733   9.448
 27        1.992   5.813   0.890   0.732   9.427
 28        1.993   5.818   0.907   0.723   9.441
 29        1.993   5.816   0.906   0.744   9.460
 30        1.993   5.817   0.906   0.726   9.442
 31        2.001   5.779   0.988   0.774   9.542
 32        2.005   5.768   1.051   0.824   9.648
 33        2.000   5.778   0.973   0.770   9.522
 34        1.999   5.787   1.033   0.805   9.624
 35        2.000   5.779   0.974   0.769   9.522
 36        1.600   3.384   0.000   0.000   4.985
 37        1.600   3.384   0.000   0.000   4.984
 38        1.600   3.384   0.000   0.000   4.985
 39        1.600   3.384   0.000   0.000   4.984
 40        1.600   3.384   0.000   0.000   4.985
 41        1.600   3.384   0.000   0.000   4.985
 42        1.600   3.384   0.000   0.000   4.985
 43        1.600   3.384   0.000   0.000   4.984
 44        1.600   3.384   0.000   0.000   4.985
 45        1.600   3.384   0.000   0.000   4.985
 46        1.600   3.384   0.000   0.000   4.984
 47        1.600   3.384   0.000   0.000   4.984
 48        1.597   3.456   0.000   0.000   5.053
 49        1.597   3.456   0.000   0.000   5.053
 50        1.596   3.457   0.000   0.000   5.054
 51        1.597   3.457   0.000   0.000   5.053
 52        1.597   3.456   0.000   0.000   5.052
 53        1.596   3.455   0.000   0.000   5.051
 54        1.597   3.457   0.000   0.000   5.054
 55        1.596   3.455   0.000   0.000   5.051
 56        1.597   3.457   0.000   0.000   5.053
 57        1.597   3.457   0.000   0.000   5.053
 58        1.597   3.456   0.000   0.000   5.053
 59        1.597   3.459   0.000   0.000   5.055
 60        1.598   3.465   0.000   0.000   5.062
 61        1.598   3.462   0.000   0.000   5.060
 62        1.597   3.462   0.000   0.000   5.059
 63        1.598   3.467   0.000   0.000   5.065
 64        1.598   3.467   0.000   0.000   5.065
 65        1.598   3.466   0.000   0.000   5.064
 66        1.598   3.464   0.000   0.000   5.062
 67        1.598   3.468   0.000   0.000   5.066
 68        1.599   3.469   0.000   0.000   5.068
 69        1.598   3.464   0.000   0.000   5.062
 70        1.598   3.468   0.000   0.000   5.066
 71        1.598   3.466   0.000   0.000   5.064
 72        1.598   3.456   0.000   0.000   5.053
 73        1.597   3.451   0.000   0.000   5.048
 74        1.597   3.452   0.000   0.000   5.049
 75        1.597   3.462   0.000   0.000   5.059
 76        1.597   3.456   0.000   0.000   5.053
 77        1.598   3.458   0.000   0.000   5.056
 78        1.598   3.459   0.000   0.000   5.057
 79        1.597   3.459   0.000   0.000   5.056
 80        1.597   3.456   0.000   0.000   5.054
 81        1.596   3.459   0.000   0.000   5.056
 82        1.597   3.459   0.000   0.000   5.056
 83        1.597   3.457   0.000   0.000   5.054
 84        1.600   3.464   0.000   0.000   5.063
 85        1.599   3.478   0.000   0.000   5.077
 86        1.599   3.479   0.000   0.000   5.078
 87        1.595   3.467   0.000   0.000   5.063
 88        1.598   3.467   0.000   0.000   5.065
 89        1.596   3.465   0.000   0.000   5.062
 90        1.599   3.478   0.000   0.000   5.077
 91        1.599   3.479   0.000   0.000   5.079
 92        1.596   3.458   0.000   0.000   5.054
 93        1.600   3.483   0.000   0.000   5.083
 94        1.599   3.478   0.000   0.000   5.077
 95        1.599   3.479   0.000   0.000   5.078
 96        1.605   3.437   0.000   0.000   5.042
 97        1.602   3.412   0.000   0.000   5.013
 98        1.602   3.431   0.000   0.000   5.033
 99        1.605   3.399   0.000   0.000   5.005
100        1.602   3.412   0.000   0.000   5.013
101        1.602   3.413   0.000   0.000   5.016
102        1.602   3.416   0.000   0.000   5.019
103        1.599   3.354   0.000   0.000   4.952
104        1.597   3.564   0.000   0.000   5.161
105        1.601   3.396   0.000   0.000   4.997
106        1.605   3.387   0.000   0.000   4.992
107        1.601   3.409   0.000   0.000   5.010
108        0.686   0.689   8.051   0.000   9.426
109        0.691   0.398   8.139   0.000   9.228
110        0.872   1.655   0.000   0.000   2.527
111        1.624   3.532   0.000   0.000   5.156
------------------------------------------------
tot      188.796 457.250  48.282  26.054 720.383

 


 magnetization (x)
 
# of ion     s       p       d       f       tot
------------------------------------------------
  1       -0.000  -0.000  -0.000  -0.000  -0.000
  2        0.000   0.000   0.000  -0.000  -0.000
  3        0.000   0.000   0.000  -0.000  -0.000
  4       -0.000   0.000   0.000   0.000   0.000
  5       -0.000   0.000   0.000   0.000   0.000
  6        0.000   0.000   0.000   0.000   0.000
  7       -0.000  -0.000  -0.000  -0.000  -0.000
  8        0.000   0.000   0.000   0.000   0.000
  9       -0.000   0.000  -0.000  -0.000  -0.000
 10       -0.000   0.000   0.000  -0.000  -0.000
 11        0.000  -0.000   0.000  -0.000  -0.000
 12        0.000   0.000  -0.000   0.000   0.000
 13       -0.000  -0.000   0.000  -0.000  -0.000
 14       -0.000   0.000   0.000  -0.000  -0.000
 15        0.000   0.000  -0.000   0.000   0.000
 16       -0.000  -0.000  -0.000  -0.000  -0.000
 17       -0.000   0.000   0.000   0.000   0.000
 18        0.000  -0.000  -0.000  -0.000  -0.000
 19        0.000   0.000   0.000   0.000   0.000
 20        0.000   0.000   0.000   0.000   0.000
 21        0.000  -0.000  -0.000  -0.000  -0.000
 22       -0.000  -0.000   0.000   0.000  -0.000
 23        0.000   0.000  -0.000  -0.000   0.000
 24        0.000   0.000  -0.000   0.000   0.000
 25        0.000   0.000   0.000   0.000   0.000
 26        0.000  -0.000   0.000   0.000   0.000
 27       -0.000   0.000   0.000   0.000   0.000
 28        0.000   0.000   0.000   0.000   0.000
 29        0.000  -0.000  -0.000   0.000   0.000
 30        0.000  -0.000   0.000   0.000   0.000
 31       -0.000  -0.000  -0.000   0.000   0.000
 32        0.000   0.000   0.000   0.000   0.000
 33       -0.000   0.000   0.000   0.000   0.000
 34       -0.000  -0.000   0.000   0.000   0.000
 35        0.000  -0.000   0.000  -0.000  -0.000
 36       -0.000   0.000   0.000   0.000   0.000
 37       -0.000   0.000   0.000   0.000  -0.000
 38       -0.000  -0.000   0.000   0.000  -0.000
 39       -0.000   0.000   0.000   0.000   0.000
 40        0.000   0.000   0.000   0.000   0.000
 41       -0.000   0.000   0.000   0.000   0.000
 42       -0.000  -0.000   0.000   0.000  -0.000
 43       -0.000   0.000   0.000   0.000   0.000
 44       -0.000  -0.000   0.000   0.000  -0.000
 45       -0.000   0.000   0.000   0.000   0.000
 46       -0.000  -0.000   0.000   0.000  -0.000
 47       -0.000  -0.000   0.000   0.000  -0.000
 48        0.000   0.000   0.000   0.000   0.000
 49        0.000  -0.000   0.000   0.000  -0.000
 50       -0.000   0.000   0.000   0.000  -0.000
 51       -0.000   0.000   0.000   0.000  -0.000
 52       -0.000   0.000   0.000   0.000   0.000
 53       -0.000  -0.000   0.000   0.000  -0.000
 54       -0.000   0.000   0.000   0.000   0.000
 55        0.000   0.000   0.000   0.000   0.000
 56       -0.000  -0.000   0.000   0.000  -0.000
 57       -0.000   0.000   0.000   0.000   0.000
 58       -0.000   0.000   0.000   0.000   0.000
 59       -0.000   0.000   0.000   0.000  -0.000
 60        0.000   0.000   0.000   0.000   0.000
 61       -0.000   0.000   0.000   0.000   0.000
 62       -0.000   0.000   0.000   0.000  -0.000
 63       -0.000   0.000   0.000   0.000   0.000
 64       -0.000   0.000   0.000   0.000   0.000
 65       -0.000  -0.000   0.000   0.000  -0.000
 66       -0.000   0.000   0.000   0.000   0.000
 67       -0.000  -0.000   0.000   0.000  -0.000
 68        0.000   0.000   0.000   0.000   0.000
 69        0.000   0.000   0.000   0.000   0.000
 70       -0.000   0.000   0.000   0.000  -0.000
 71        0.000   0.000   0.000   0.000   0.000
 72        0.000   0.000   0.000   0.000   0.000
 73       -0.000   0.000   0.000   0.000   0.000
 74       -0.000  -0.000   0.000   0.000  -0.000
 75        0.000   0.000   0.000   0.000   0.000
 76       -0.000  -0.000   0.000   0.000  -0.000
 77        0.000  -0.000   0.000   0.000  -0.000
 78        0.000  -0.000   0.000   0.000  -0.000
 79        0.000  -0.000   0.000   0.000  -0.000
 80        0.000  -0.000   0.000   0.000  -0.000
 81       -0.000   0.000   0.000   0.000   0.000
 82       -0.000  -0.000   0.000   0.000  -0.000
 83       -0.000  -0.000   0.000   0.000  -0.000
 84        0.000   0.000   0.000   0.000   0.000
 85       -0.000  -0.000   0.000   0.000  -0.000
 86        0.000  -0.000   0.000   0.000  -0.000
 87        0.000   0.000   0.000   0.000   0.000
 88        0.000   0.000   0.000   0.000   0.000
 89       -0.000  -0.000   0.000   0.000  -0.000
 90       -0.000  -0.000   0.000   0.000  -0.000
 91       -0.000   0.000   0.000   0.000   0.000
 92        0.000   0.000   0.000   0.000   0.000
 93       -0.000   0.000   0.000   0.000  -0.000
 94        0.000   0.000   0.000   0.000   0.000
 95        0.000  -0.000   0.000   0.000  -0.000
 96       -0.000  -0.000   0.000   0.000  -0.000
 97       -0.000  -0.000   0.000   0.000  -0.000
 98       -0.000  -0.000   0.000   0.000  -0.000
 99        0.000  -0.000   0.000   0.000  -0.000
100       -0.000  -0.000   0.000   0.000  -0.000
101        0.000  -0.000   0.000   0.000  -0.000
102       -0.000  -0.000   0.000   0.000  -0.000
103       -0.000  -0.000   0.000   0.000  -0.000
104       -0.000   0.000   0.000   0.000   0.000
105        0.000  -0.000   0.000   0.000  -0.000
106       -0.000   0.000   0.000   0.000  -0.000
107       -0.000   0.000   0.000   0.000  -0.000
108        0.000   0.000   0.000   0.000   0.000
109        0.000   0.000  -0.000   0.000  -0.000
110        0.000  -0.000   0.000   0.000   0.000
111        0.000  -0.000   0.000   0.000  -0.000
------------------------------------------------
tot       -0.000  -0.000   0.000   0.000   0.000

 

 total amount of memory used by VASP on root node   111052. kBytes
========================================================================

   base      :      30000. kBytes
   nonlr-proj:      13712. kBytes
   fftplans  :      26017. kBytes
   grid      :      28730. kBytes
   one-center:        933. kBytes
   wavefun   :      11660. kBytes
 
  
  
 General timing and accounting informations for this job:
 ========================================================
  
                  Total CPU time used (sec):       90.372
                            User time (sec):       84.658
                          System time (sec):        5.715
                         Elapsed time (sec):       97.011
  
                   Maximum memory used (kb):      307724.
                   Average memory used (kb):           0.
  
                          Minor page faults:        56816
                          Major page faults:            6
                 Voluntary context switches:        21352
