 vasp.5.3.5 31Mar14 (build May 27 2014 14:39:49) gamma-only                     
  
 executed on           LinuxIFORT date 2020.11.24  14:55:35
 running on   96 total cores
 distrk:  each k-point on   96 cores,    1 groups
 distr:  one band on NCORES_PER_BAND=   6 cores,   16 groups


--------------------------------------------------------------------------------------------------------


 INCAR:
 POTCAR:    PAW_PBE Ce 23Dec2003                  
 POTCAR:    PAW_PBE O 08Apr2002                   
 POTCAR:    PAW_PBE Pt 04Feb2005                  
 POTCAR:    PAW_PBE O 08Apr2002                   
 POTCAR:    PAW_PBE C 08Apr2002                   
 POTCAR:    PAW_PBE Ce 23Dec2003                  
   VRHFIN =Ce : [core= Kr 4d10]                                                 
   LEXCH  = PE                                                                  
   EATOM  =  1063.0861 eV,   78.1346 Ry                                         
                                                                                
   TITEL  = PAW_PBE Ce 23Dec2003                                                
   LULTRA =        F    use ultrasoft PP ?                                      
   IUNSCR =        1    unscreen: 0-lin 1-nonlin 2-no                           
   RPACOR =    1.800    partial core radius                                     
   POMASS =  140.115; ZVAL   =   12.000    mass and valenz                      
   RCORE  =    2.700    outmost cutoff radius                                   
   RWIGS  =    2.500; RWIGS  =    1.323    wigner-seitz radius (au A)           
   ENMAX  =  273.042; ENMIN  =  204.781 eV                                      
   RCLOC  =    1.810    cutoff for local pot                                    
   LCOR   =        T    correct aug charges                                     
   LPAW   =        T    paw PP                                                  
   EAUG   =  580.196                                                            
   DEXC   =    0.000                                                            
   RMAX   =    2.749    core radius for proj-oper                               
   RAUG   =    1.300    factor for augmentation sphere                          
   RDEP   =    2.810    radius for radial grids                                 
   RDEPT  =    2.162    core radius for aug-charge                              
                                                                                
   Atomic configuration                                                         
   14 entries                                                                   
     n  l   j            E        occ.                                          
     1  0  0.50    -40258.9816   2.0000                                         
     2  0  0.50     -6445.4884   2.0000                                         
     2  1  1.50     -5771.7470   6.0000                                         
     3  0  0.50     -1387.9739   2.0000                                         
     3  1  1.50     -1173.8158   6.0000                                         
     3  2  2.50      -869.9108  10.0000                                         
     4  0  0.50      -280.8706   2.0000                                         
     4  1  1.50      -210.9815   6.0000                                         
     4  2  2.50      -110.4558  10.0000                                         
     5  0  0.50       -40.5819   2.0000                                         
     6  0  0.50        -3.7444   2.0000                                         
     5  1  1.50       -23.2188   6.0000                                         
     5  2  2.50        -3.0598   1.0000                                         
     4  3  2.50        -5.3970   1.0000                                         
   Description                                                                  
     l       E           TYP  RCUT    TYP  RCUT                                 
     0    -40.5819164     23  1.500                                             
     0     -3.7443793     23  2.300                                             
     1    -23.2188445     23  2.000                                             
     1     40.8174780     23  2.300                                             
     2     -3.0597556     23  2.500                                             
     2     13.6058260     23  2.500                                             
     3     -5.3970469     23  2.700                                             
     3     -5.8505052     23  2.700                                             
  local pseudopotential read in
  partial core-charges read in
  partial kinetic energy density read in
  atomic valenz-charges read in
  non local Contribution for L=           0  read in
    real space projection operators read in
  non local Contribution for L=           0  read in
    real space projection operators read in
  non local Contribution for L=           1  read in
    real space projection operators read in
  non local Contribution for L=           1  read in
    real space projection operators read in
  non local Contribution for L=           2  read in
    real space projection operators read in
  non local Contribution for L=           2  read in
    real space projection operators read in
  non local Contribution for L=           3  read in
    real space projection operators read in
  non local Contribution for L=           3  read in
    real space projection operators read in
    PAW grid and wavefunctions read in
 
   number of l-projection  operators is LMAX  =           8
   number of lm-projection operators is LMMAX =          32
 
 POTCAR:    PAW_PBE O 08Apr2002                   
   VRHFIN =O: s2p4                                                              
   LEXCH  = PE                                                                  
   EATOM  =   432.3788 eV,   31.7789 Ry                                         
                                                                                
   TITEL  = PAW_PBE O 08Apr2002                                                 
   LULTRA =        F    use ultrasoft PP ?                                      
   IUNSCR =        1    unscreen: 0-lin 1-nonlin 2-no                           
   RPACOR =    1.200    partial core radius                                     
   POMASS =   16.000; ZVAL   =    6.000    mass and valenz                      
   RCORE  =    1.520    outmost cutoff radius                                   
   RWIGS  =    1.550; RWIGS  =    0.820    wigner-seitz radius (au A)           
   ENMAX  =  400.000; ENMIN  =  300.000 eV                                      
   ICORE  =        2    local potential                                         
   LCOR   =        T    correct aug charges                                     
   LPAW   =        T    paw PP                                                  
   EAUG   =  605.392                                                            
   DEXC   =    0.000                                                            
   RMAX   =    1.553    core radius for proj-oper                               
   RAUG   =    1.300    factor for augmentation sphere                          
   RDEP   =    1.550    radius for radial grids                                 
   RDEPT  =    1.329    core radius for aug-charge                              
                                                                                
   Atomic configuration                                                         
    4 entries                                                                   
     n  l   j            E        occ.                                          
     1  0  0.50      -514.6923   2.0000                                         
     2  0  0.50       -23.9615   2.0000                                         
     2  1  0.50        -9.0305   4.0000                                         
     3  2  1.50        -9.5241   0.0000                                         
   Description                                                                  
     l       E           TYP  RCUT    TYP  RCUT                                 
     0    -23.9615318     23  1.200                                             
     0     -9.5240782     23  1.200                                             
     1     -9.0304911     23  1.520                                             
     1      8.1634956     23  1.520                                             
     2     -9.5240782      7  1.500                                             
  local pseudopotential read in
  partial core-charges read in
  partial kinetic energy density read in
  kinetic energy density of atom read in
  atomic valenz-charges read in
  non local Contribution for L=           0  read in
    real space projection operators read in
  non local Contribution for L=           0  read in
    real space projection operators read in
  non local Contribution for L=           1  read in
    real space projection operators read in
  non local Contribution for L=           1  read in
    real space projection operators read in
    PAW grid and wavefunctions read in
 
   number of l-projection  operators is LMAX  =           4
   number of lm-projection operators is LMMAX =           8
 
 POTCAR:    PAW_PBE Pt 04Feb2005                  
   VRHFIN =Pt: s1d9                                                             
   LEXCH  = PE                                                                  
   EATOM  =   729.1176 eV,   53.5886 Ry                                         
                                                                                
   TITEL  = PAW_PBE Pt 04Feb2005                                                
   LULTRA =        F    use ultrasoft PP ?                                      
   IUNSCR =        1    unscreen: 0-lin 1-nonlin 2-no                           
   RPACOR =    2.330    partial core radius                                     
   POMASS =  195.080; ZVAL   =   10.000    mass and valenz                      
   RCORE  =    2.600    outmost cutoff radius                                   
   RWIGS  =    2.750; RWIGS  =    1.455    wigner-seitz radius (au A)           
   ENMAX  =  230.283; ENMIN  =  172.712 eV                                      
   ICORE  =        3    local potential                                         
   LCOR   =        T    correct aug charges                                     
   LPAW   =        T    paw PP                                                  
   EAUG   =  358.966                                                            
   DEXC   =    0.000                                                            
   RMAX   =    2.658    core radius for proj-oper                               
   RAUG   =    1.300    factor for augmentation sphere                          
   RDEP   =    2.761    radius for radial grids                                 
   RDEPT  =    2.203    core radius for aug-charge                              
                                                                                
   Atomic configuration                                                         
   16 entries                                                                   
     n  l   j            E        occ.                                          
     1  0  0.50    -78401.1885   2.0000                                         
     2  0  0.50    -13770.7750   2.0000                                         
     2  1  1.50    -11931.0468   6.0000                                         
     3  0  0.50     -3234.7234   2.0000                                         
     3  1  1.50     -2699.2216   6.0000                                         
     3  2  2.50     -2119.5714  10.0000                                         
     4  0  0.50      -695.1528   2.0000                                         
     4  1  1.50      -519.6034   6.0000                                         
     4  2  2.50      -306.6786  10.0000                                         
     4  3  3.50       -70.1041  14.0000                                         
     5  0  0.50      -101.7747   2.0000                                         
     5  1  1.50       -55.9873   6.0000                                         
     5  2  2.50        -6.1423   9.0000                                         
     6  0  0.50        -5.6573   1.0000                                         
     6  1  1.50        -6.8029   0.0000                                         
     5  3  2.50        -1.3606   0.0000                                         
   Description                                                                  
     l       E           TYP  RCUT    TYP  RCUT                                 
     2     -6.1423404     23  2.500                                             
     2     -7.5029230     23  2.500                                             
     0     -5.6573207     23  2.500                                             
     0      0.7416693     23  2.500                                             
     1     -2.7211652     23  2.600                                             
     1     20.4087390     23  2.600                                             
     3     -1.3605826     23  2.500                                             
  local pseudopotential read in
  partial core-charges read in
  partial kinetic energy density read in
  atomic valenz-charges read in
  non local Contribution for L=           2  read in
    real space projection operators read in
  non local Contribution for L=           2  read in
    real space projection operators read in
  non local Contribution for L=           0  read in
    real space projection operators read in
  non local Contribution for L=           0  read in
    real space projection operators read in
  non local Contribution for L=           1  read in
    real space projection operators read in
  non local Contribution for L=           1  read in
    real space projection operators read in
    PAW grid and wavefunctions read in
 
   number of l-projection  operators is LMAX  =           6
   number of lm-projection operators is LMMAX =          18
 
 POTCAR:    PAW_PBE O 08Apr2002                   
   VRHFIN =O: s2p4                                                              
   LEXCH  = PE                                                                  
   EATOM  =   432.3788 eV,   31.7789 Ry                                         
                                                                                
   TITEL  = PAW_PBE O 08Apr2002                                                 
   LULTRA =        F    use ultrasoft PP ?                                      
   IUNSCR =        1    unscreen: 0-lin 1-nonlin 2-no                           
   RPACOR =    1.200    partial core radius                                     
   POMASS =   16.000; ZVAL   =    6.000    mass and valenz                      
   RCORE  =    1.520    outmost cutoff radius                                   
   RWIGS  =    1.550; RWIGS  =    0.820    wigner-seitz radius (au A)           
   ENMAX  =  400.000; ENMIN  =  300.000 eV                                      
   ICORE  =        2    local potential                                         
   LCOR   =        T    correct aug charges                                     
   LPAW   =        T    paw PP                                                  
   EAUG   =  605.392                                                            
   DEXC   =    0.000                                                            
   RMAX   =    1.553    core radius for proj-oper                               
   RAUG   =    1.300    factor for augmentation sphere                          
   RDEP   =    1.550    radius for radial grids                                 
   RDEPT  =    1.329    core radius for aug-charge                              
                                                                                
   Atomic configuration                                                         
    4 entries                                                                   
     n  l   j            E        occ.                                          
     1  0  0.50      -514.6923   2.0000                                         
     2  0  0.50       -23.9615   2.0000                                         
     2  1  0.50        -9.0305   4.0000                                         
     3  2  1.50        -9.5241   0.0000                                         
   Description                                                                  
     l       E           TYP  RCUT    TYP  RCUT                                 
     0    -23.9615318     23  1.200                                             
     0     -9.5240782     23  1.200                                             
     1     -9.0304911     23  1.520                                             
     1      8.1634956     23  1.520                                             
     2     -9.5240782      7  1.500                                             
  local pseudopotential read in
  partial core-charges read in
  partial kinetic energy density read in
  kinetic energy density of atom read in
  atomic valenz-charges read in
  non local Contribution for L=           0  read in
    real space projection operators read in
  non local Contribution for L=           0  read in
    real space projection operators read in
  non local Contribution for L=           1  read in
    real space projection operators read in
  non local Contribution for L=           1  read in
    real space projection operators read in
    PAW grid and wavefunctions read in
 
   number of l-projection  operators is LMAX  =           4
   number of lm-projection operators is LMMAX =           8
 
 POTCAR:    PAW_PBE C 08Apr2002                   
   VRHFIN =C: s2p2                                                              
   LEXCH  = PE                                                                  
   EATOM  =   147.1560 eV,   10.8157 Ry                                         
                                                                                
   TITEL  = PAW_PBE C 08Apr2002                                                 
   LULTRA =        F    use ultrasoft PP ?                                      
   IUNSCR =        1    unscreen: 0-lin 1-nonlin 2-no                           
   RPACOR =    1.200    partial core radius                                     
   POMASS =   12.011; ZVAL   =    4.000    mass and valenz                      
   RCORE  =    1.500    outmost cutoff radius                                   
   RWIGS  =    1.630; RWIGS  =    0.863    wigner-seitz radius (au A)           
   ENMAX  =  400.000; ENMIN  =  300.000 eV                                      
   ICORE  =        2    local potential                                         
   LCOR   =        T    correct aug charges                                     
   LPAW   =        T    paw PP                                                  
   EAUG   =  644.873                                                            
   DEXC   =    0.000                                                            
   RMAX   =    1.529    core radius for proj-oper                               
   RAUG   =    1.300    factor for augmentation sphere                          
   RDEP   =    1.501    radius for radial grids                                 
   RDEPT  =    1.300    core radius for aug-charge                              
                                                                                
   Atomic configuration                                                         
    4 entries                                                                   
     n  l   j            E        occ.                                          
     1  0  0.50      -273.3789   2.0000                                         
     2  0  0.50       -13.7508   2.0000                                         
     2  1  0.50        -5.2854   2.0000                                         
     3  2  1.50        -5.4423   0.0000                                         
   Description                                                                  
     l       E           TYP  RCUT    TYP  RCUT                                 
     0    -13.7508458     23  1.200                                             
     0     -8.2022199     23  1.200                                             
     1     -5.2854383     23  1.500                                             
     1     34.0145650     23  1.500                                             
     2     -5.4423304      7  1.500                                             
  local pseudopotential read in
  partial core-charges read in
  partial kinetic energy density read in
  atomic valenz-charges read in
  non local Contribution for L=           0  read in
    real space projection operators read in
  non local Contribution for L=           0  read in
    real space projection operators read in
  non local Contribution for L=           1  read in
    real space projection operators read in
  non local Contribution for L=           1  read in
    real space projection operators read in
    PAW grid and wavefunctions read in
 
   number of l-projection  operators is LMAX  =           4
   number of lm-projection operators is LMMAX =           8
 
 Optimization of the real space projectors (new method)

 maximal supplied QI-value         = 13.98
 optimisation between [QCUT,QGAM] = [ 10.21, 20.42] = [ 29.18,116.73] Ry 
 Optimized for a Real-space Cutoff    1.65 Angstroem

   l    n(q)    QCUT    max X(q) W(low)/X(q) W(high)/X(q)  e(spline) 
   0     10    10.208     8.553    0.18E-04    0.75E-05    0.12E-06
   0     10    10.208     8.106    0.26E-04    0.16E-04    0.24E-06
   1     10    10.208     4.160    0.93E-05    0.96E-06    0.75E-07
   1     10    10.208     3.597    0.23E-04    0.26E-04    0.15E-06
   2      9    10.208     8.183    0.11E-03    0.28E-03    0.51E-06
   2      9    10.208     6.077    0.74E-04    0.19E-03    0.37E-06
   3      9    10.208   116.013    0.19E-03    0.98E-05    0.18E-06
   3      9    10.208   108.937    0.19E-03    0.10E-04    0.18E-06
 Optimization of the real space projectors (new method)

 maximal supplied QI-value         = 24.76
 optimisation between [QCUT,QGAM] = [ 10.15, 20.30] = [ 28.85,115.39] Ry 
 Optimized for a Real-space Cutoff    1.51 Angstroem

   l    n(q)    QCUT    max X(q) W(low)/X(q) W(high)/X(q)  e(spline) 
   0      9    10.150    20.381    0.17E-03    0.18E-03    0.41E-06
   0      9    10.150    15.268    0.18E-03    0.20E-03    0.43E-06
   1      9    10.150     5.964    0.16E-03    0.20E-03    0.36E-06
   1      9    10.150     5.382    0.13E-03    0.16E-03    0.33E-06
 Optimization of the real space projectors (new method)

 maximal supplied QI-value         = 14.36
 optimisation between [QCUT,QGAM] = [ 10.20, 20.39] = [ 29.12,116.47] Ry 
 Optimized for a Real-space Cutoff    1.55 Angstroem

   l    n(q)    QCUT    max X(q) W(low)/X(q) W(high)/X(q)  e(spline) 
   2      9    10.197    66.195    0.14E-03    0.26E-03    0.16E-06
   2      9    10.197    64.643    0.14E-03    0.26E-03    0.16E-06
   0      9    10.197    95.520    0.52E-04    0.23E-04    0.61E-07
   0      9    10.197    63.403    0.50E-04    0.22E-04    0.58E-07
   1      9    10.197    19.961    0.18E-03    0.80E-04    0.90E-07
   1      9    10.197    13.289    0.15E-03    0.68E-04    0.78E-07
 Optimization of the real space projectors (new method)

 maximal supplied QI-value         = 24.76
 optimisation between [QCUT,QGAM] = [ 10.15, 20.30] = [ 28.85,115.39] Ry 
 Optimized for a Real-space Cutoff    1.51 Angstroem

   l    n(q)    QCUT    max X(q) W(low)/X(q) W(high)/X(q)  e(spline) 
   0      9    10.150    20.381    0.17E-03    0.18E-03    0.41E-06
   0      9    10.150    15.268    0.18E-03    0.20E-03    0.43E-06
   1      9    10.150     5.964    0.16E-03    0.20E-03    0.36E-06
   1      9    10.150     5.382    0.13E-03    0.16E-03    0.33E-06
 Optimization of the real space projectors (new method)

 maximal supplied QI-value         = 25.13
 optimisation between [QCUT,QGAM] = [ 10.05, 20.36] = [ 28.30,116.06] Ry 
 Optimized for a Real-space Cutoff    1.51 Angstroem

   l    n(q)    QCUT    max X(q) W(low)/X(q) W(high)/X(q)  e(spline) 
   0      9    10.053   115.676    0.19E-03    0.21E-03    0.38E-06
   0      9    10.053    87.132    0.19E-03    0.21E-03    0.38E-06
   1      9    10.053     4.429    0.87E-04    0.11E-03    0.39E-06
   1      9    10.053     2.733    0.59E-04    0.62E-04    0.43E-06
  PAW_PBE Ce 23Dec2003                  :
 energy of atom  1       EATOM=-1063.0861
 kinetic energy error for atom=    0.0451 (will be added to EATOM!!)
  PAW_PBE O 08Apr2002                   :
 energy of atom  2       EATOM= -432.3788
 kinetic energy error for atom=    0.1156 (will be added to EATOM!!)
  PAW_PBE Pt 04Feb2005                  :
 energy of atom  3       EATOM= -729.1176
 kinetic energy error for atom=    0.0056 (will be added to EATOM!!)
  PAW_PBE O 08Apr2002                   :
 energy of atom  4       EATOM= -432.3788
 kinetic energy error for atom=    0.1156 (will be added to EATOM!!)
  PAW_PBE C 08Apr2002                   :
 energy of atom  5       EATOM= -147.1560
 kinetic energy error for atom=    0.0288 (will be added to EATOM!!)
 
 
 POSCAR: CeO2-110-l3-p23:                        
  positions in direct lattice
  velocities in cartesian coordinates
 exchange correlation table for  LEXCH =        8
   RHO(1)=    0.500       N(1)  =     2000
   RHO(2)=  100.500       N(2)  =     4000

 VTST: version 3.1, (03/28/14)

 CHAIN: initializing optimizer
 
 OPT: Using VASP Conjugate-Gradient optimizer
 CHAIN: Read ICHAIN            0
 
 POSCAR: CeO2-110-l3-p23:                        
  positions in direct lattice
  velocities in cartesian coordinates
 


--------------------------------------------------------------------------------------------------------


 ion  position               nearest neighbor table
   1  0.771  0.167  0.000-  37 2.38  41 2.38  40 2.38  45 2.38  53 2.38  55 2.38
   2  0.771  0.500  0.000-  37 2.38  39 2.38  41 2.38  47 2.38  59 2.38  60 2.38
   3  0.271  0.167  0.000-  42 2.38  46 2.38  44 2.38  38 2.38  51 2.38  52 2.38
   4  0.771  0.833  0.000-  39 2.38  47 2.38  45 2.38  40 2.38  50 2.38  54 2.38
   5  0.271  0.500  0.000-  42 2.38  43 2.38  46 2.38  48 2.38  57 2.38  58 2.38
   6  0.271  0.833  0.000-  43 2.38  48 2.38  44 2.38  38 2.38  49 2.38  56 2.38
   7  0.521  0.000  0.079-  67 2.37  61 2.38  51 2.38  55 2.38  49 2.38  50 2.38  44 2.38  45 2.38

   8  0.521  0.667  0.079-  62 2.38  50 2.38  49 2.38  60 2.38  57 2.38  43 2.38  39 2.38  63 2.38

   9  0.021  0.000  0.079-  65 2.36  66 2.37  54 2.38  56 2.38  52 2.38  53 2.38  38 2.38  40 2.38

  10  0.521  0.333  0.079-  71 2.37  55 2.38  51 2.38  60 2.38  57 2.38  46 2.38  37 2.38  69 2.39

  11  0.021  0.333  0.079-  70 2.38  53 2.38  52 2.38  59 2.38  58 2.38  42 2.38  41 2.38  72 2.38

  12  0.021  0.667  0.079-  68 2.36  64 2.37  54 2.38  56 2.38  58 2.38  59 2.38  47 2.38  48 2.38

  13  0.771  0.167  0.158-  80 2.36  73 2.36  70 2.37  71 2.37  66 2.38  55 2.39  53 2.39  61 2.39

  14  0.771  0.833  0.158-  84 2.35  63 2.37  61 2.37  64 2.37  66 2.38  74 2.38  50 2.38  54 2.39

  15  0.271  0.167  0.158-  83 2.37  79 2.37  65 2.37  69 2.37  72 2.37  67 2.38  52 2.39  51 2.40

  16  0.771  0.499  0.158-  76 2.35  78 2.36  70 2.37  71 2.37  64 2.38  63 2.39  60 2.39  59 2.39

  17  0.271  0.500  0.158-  81 2.37  68 2.37  72 2.37  82 2.37  69 2.38  62 2.38  58 2.39  57 2.40

  18  0.271  0.833  0.157-  77 2.34  56 2.37  75 2.37  49 2.37  62 2.38  67 2.38  68 2.38  65 2.38

  19  0.019  0.667  0.233-  64 2.34  68 2.35  92 2.37  84 2.37  82 2.37  76 2.38  87 2.39  77 2.39

  20  0.521  0.666  0.234-  63 2.34  62 2.35  81 2.36  78 2.36  74 2.38  90 2.39  75 2.39  93 2.41

  21  0.020  0.333  0.235-  72 2.37  80 2.37  76 2.37  70 2.37  95 2.38  82 2.39  83 2.39  94 2.39

  22  0.020  0.000  0.233-  66 2.33  65 2.35  86 2.37  83 2.37  84 2.37  80 2.38  96 2.38  77 2.39

  23  0.521  0.001  0.234-  61 2.34  67 2.35  79 2.36  73 2.37  74 2.38  89 2.39  75 2.39  91 2.42

  24  0.520  0.333  0.234-  69 2.34  71 2.36  73 2.37  78 2.37  85 2.38  81 2.38  79 2.39  88 2.39

  25  0.771  0.499  0.317- 106 2.30  94 2.35 107 2.36  92 2.37  90 2.38  85 2.39  76 2.44  78 2.45

  26  0.771  0.168  0.317- 103 2.30  94 2.35 104 2.36  89 2.37  86 2.38  85 2.39  80 2.44  73 2.45

  27  0.268  0.500  0.317- 108 2.28 105 2.33  95 2.36  88 2.40  82 2.41  93 2.43  87 2.43  81 2.45

  28  0.270  0.833  0.312-  87 2.32  96 2.33  91 2.34  93 2.35  75 2.35  77 2.36  98 2.46  99 2.51

  29  0.268  0.166  0.317- 101 2.29 100 2.33  95 2.35  88 2.39  96 2.42  83 2.42  91 2.44  79 2.44

  30  0.770  0.833  0.317- 102 2.32  97 2.35  92 2.38  86 2.38  90 2.40  89 2.40  74 2.42  84 2.46

  31  0.017  0.005  0.385- 103 2.21 101 2.22  86 2.26  96 2.28 102 2.35  98 2.45
  32  0.522  0.006  0.386-  89 2.24  91 2.24 104 2.27 100 2.29  97 2.33  99 2.49
  33  0.016  0.662  0.385- 106 2.21 108 2.23  92 2.27  87 2.28 102 2.34  98 2.52
  34  0.521  0.661  0.386-  90 2.24  93 2.24 107 2.29 105 2.29  97 2.36  99 2.45
  35  0.019  0.334  0.389-  94 2.33  95 2.34 108 2.44 101 2.46 103 2.47 106 2.47
  36  0.519  0.333  0.385-  85 2.23  88 2.24 107 2.32 105 2.33 104 2.33 100 2.34
  37  0.646  0.333  0.000-   1 2.38   2 2.38  10 2.38
  38  0.146  0.000  0.000-   3 2.38   6 2.38   9 2.38
  39  0.646  0.667  0.000-   4 2.38   2 2.38   8 2.38
  40  0.896  0.000  0.000-   1 2.38   4 2.38   9 2.38
  41  0.896  0.333  0.000-   1 2.38   2 2.38  11 2.38
  42  0.146  0.333  0.000-   3 2.38   5 2.38  11 2.38
  43  0.396  0.667  0.000-   6 2.38   5 2.38   8 2.38
  44  0.396  0.000  0.000-   3 2.38   6 2.38   7 2.38
  45  0.646  0.000  0.000-   1 2.38   4 2.38   7 2.38
  46  0.396  0.333  0.000-   3 2.38   5 2.38  10 2.38
  47  0.896  0.667  0.000-   4 2.38   2 2.38  12 2.38
  48  0.146  0.667  0.000-   6 2.38   5 2.38  12 2.38
  49  0.396  0.833  0.079-  18 2.37   8 2.38   7 2.38   6 2.38
  50  0.646  0.833  0.079-   8 2.38   7 2.38   4 2.38  14 2.38
  51  0.396  0.167  0.079-  10 2.38   7 2.38   3 2.38  15 2.40
  52  0.146  0.167  0.079-  11 2.38   9 2.38   3 2.38  15 2.39
  53  0.896  0.167  0.079-  11 2.38   9 2.38   1 2.38  13 2.39
  54  0.896  0.833  0.079-  12 2.38   9 2.38   4 2.38  14 2.39
  55  0.646  0.167  0.079-  10 2.38   7 2.38   1 2.38  13 2.39
  56  0.146  0.833  0.079-  18 2.37  12 2.38   9 2.38   6 2.38
  57  0.396  0.500  0.079-   8 2.38  10 2.38   5 2.38  17 2.40
  58  0.146  0.500  0.079-  11 2.38  12 2.38   5 2.38  17 2.39
  59  0.896  0.500  0.079-  11 2.38  12 2.38   2 2.38  16 2.39
  60  0.646  0.500  0.079-   8 2.38  10 2.38   2 2.38  16 2.39
  61  0.646  1.000  0.157-  23 2.34  14 2.37   7 2.38  13 2.39
  62  0.396  0.667  0.157-  20 2.35  18 2.38   8 2.38  17 2.38
  63  0.646  0.667  0.157-  20 2.34  14 2.37   8 2.38  16 2.39
  64  0.895  0.667  0.157-  19 2.34  12 2.37  14 2.37  16 2.38
  65  0.146  0.000  0.156-  22 2.35   9 2.36  15 2.37  18 2.38
  66  0.895  0.000  0.157-  22 2.33   9 2.37  14 2.38  13 2.38
  67  0.396  1.000  0.157-  23 2.35   7 2.37  18 2.38  15 2.38
  68  0.146  0.666  0.157-  19 2.35  12 2.36  17 2.37  18 2.38
  69  0.395  0.333  0.157-  24 2.34  15 2.37  17 2.38  10 2.39
  70  0.896  0.333  0.157-  13 2.37  16 2.37  21 2.37  11 2.38
  71  0.646  0.333  0.157-  24 2.36  10 2.37  13 2.37  16 2.37
  72  0.146  0.333  0.158-  21 2.37  17 2.37  15 2.37  11 2.38
  73  0.645  0.167  0.235-  13 2.36  23 2.37  24 2.37  26 2.45
  74  0.645  0.833  0.236-  23 2.38  20 2.38  14 2.38  30 2.42
  75  0.395  0.833  0.235-  28 2.35  18 2.37  23 2.39  20 2.39
  76  0.896  0.499  0.235-  16 2.35  21 2.37  19 2.38  25 2.44
  77  0.147  0.833  0.234-  18 2.34  28 2.36  19 2.39  22 2.39
  78  0.645  0.500  0.235-  16 2.36  20 2.36  24 2.37  25 2.45
  79  0.396  0.165  0.236-  23 2.36  15 2.37  24 2.39  29 2.44
  80  0.896  0.168  0.235-  13 2.36  21 2.37  22 2.38  26 2.44
  81  0.396  0.501  0.236-  20 2.36  17 2.37  24 2.38  27 2.45
  82  0.145  0.501  0.236-  19 2.37  17 2.37  21 2.39  27 2.41
  83  0.145  0.166  0.236-  15 2.37  22 2.37  21 2.39  29 2.42
  84  0.896  0.833  0.235-  14 2.35  19 2.37  22 2.37  30 2.46
  85  0.643  0.333  0.313-  36 2.23  24 2.38  26 2.39  25 2.39
  86  0.894  1.000  0.311-  31 2.26  22 2.37  26 2.38  30 2.38
  87  0.144  0.673  0.313-  33 2.28  28 2.32  19 2.39  27 2.43
  88  0.395  0.333  0.313-  36 2.24  24 2.39  29 2.39  27 2.40
  89  0.645  0.003  0.314-  32 2.24  26 2.37  23 2.39  30 2.40
  90  0.644  0.665  0.314-  34 2.24  25 2.38  20 2.39  30 2.40
  91  0.397  0.995  0.315-  32 2.24  28 2.34  23 2.42  29 2.44
  92  0.894  0.667  0.311-  33 2.27  19 2.37  25 2.37  30 2.38
  93  0.396  0.671  0.314-  34 2.24  28 2.35  20 2.41  27 2.43
  94  0.893  0.334  0.314-  35 2.33  25 2.35  26 2.35  21 2.39
  95  0.147  0.332  0.313-  35 2.34  29 2.35  27 2.36  21 2.38
  96  0.144  0.995  0.312-  31 2.28  28 2.33  22 2.38  29 2.42
  97  0.631  0.834  0.389-  32 2.33  30 2.35  34 2.36
  98  0.149  0.837  0.396- 109 1.98  31 2.45  28 2.46  33 2.52
  99  0.393  0.832  0.398- 109 2.12  34 2.45  32 2.49  28 2.51
 100  0.402  0.166  0.391-  32 2.29  29 2.33  36 2.34
 101  0.141  0.156  0.390-  31 2.22  29 2.29  35 2.46
 102  0.905  0.833  0.389-  30 2.32  33 2.34  31 2.35
 103  0.896  0.156  0.392-  31 2.21  26 2.30  35 2.47
 104  0.638  0.168  0.392-  32 2.27  36 2.33  26 2.36
 105  0.401  0.499  0.390-  34 2.29  27 2.33  36 2.33
 106  0.896  0.511  0.392-  33 2.21  25 2.30  35 2.47
 107  0.637  0.499  0.392-  34 2.29  36 2.32  25 2.36
 108  0.140  0.510  0.390-  33 2.23  27 2.28  35 2.44
 109  0.258  0.788  0.455- 111 1.81  98 1.98  99 2.12
 110  0.364  0.695  0.558- 111 1.17
 111  0.327  0.733  0.517- 110 1.17 109 1.81
 

IMPORTANT INFORMATION: All symmetrisations will be switched off!
NOSYMM: (Re-)initialisation of all symmetry stuff for point group C_1.

 
 
 KPOINTS: CeO2-111-3x3-9layers         ! Comment  

Automatic generation of k-mesh.
Space group operators:
 irot       det(A)        alpha          n_x          n_y          n_z        tau_x        tau_y        tau_z
    1     1.000000     0.000000     1.000000     0.000000     0.000000     0.000000     0.000000     0.000000
 
 Subroutine IBZKPT returns following result:
 ===========================================
 
 Found      1 irreducible k-points:
 
 Following reciprocal coordinates:
            Coordinates               Weight
  0.000000  0.000000  0.000000      1.000000
 
 Following cartesian coordinates:
            Coordinates               Weight
  0.000000  0.000000  0.000000      1.000000
 


--------------------------------------------------------------------------------------------------------




 Dimension of arrays:
   k-points           NKPTS =      1   k-points in BZ     NKDIM =      1   number of bands    NBANDS=    592
   number of dos      NEDOS =    301   number of ions     NIONS =    111
   non local maximal  LDIM  =      8   non local SUM 2l+1 LMDIM =     32
   total plane-waves  NPLWV = 933120
   max r-space proj   IRMAX =   5592   max aug-charges    IRDMAX= 143303
   dimension x,y,z NGX =    72 NGY =   80 NGZ =  162
   dimension x,y,z NGXF=   144 NGYF=  160 NGZF=  324
   support grid    NGXF=   288 NGYF=  320 NGZF=  648
   ions per type =              36  72   1   1   1
 NGX,Y,Z   is equivalent  to a cutoff of  10.90, 11.42, 10.90 a.u.
 NGXF,Y,Z  is equivalent  to a cutoff of  21.80, 22.84, 21.80 a.u.


 I would recommend the setting:
   dimension x,y,z NGX =    72 NGY =   76 NGZ =  161
 SYSTEM =  unknown system                          
 POSCAR =  CeO2-110-l3-p23:                        

 Startparameter for this run:
   NWRITE =      2    write-flag & timer
   PREC   = accura    normal or accurate (medium, high low for compatibility)
   ISTART =      1    job   : 0-new  1-cont  2-samecut
   ICHARG =      0    charge: 1-file 2-atom 10-const
   ISPIN  =      2    spin polarized calculation?
   LNONCOLLINEAR =      F non collinear calculations
   LSORBIT =      F    spin-orbit coupling
   INIWAV =      1    electr: 0-lowe 1-rand  2-diag
   LASPH  =      T    aspherical Exc in radial PAW
   METAGGA=      F    non-selfconsistent MetaGGA calc.

 Electronic Relaxation 1
   ENCUT  =  400.0 eV  29.40 Ry    5.42 a.u.  17.91 18.99 40.29*2*pi/ulx,y,z
   ENINI  =  400.0     initial cutoff
   ENAUG  =  644.9 eV  augmentation charge cutoff
   NELM   =    100;   NELMIN=  2; NELMDL=  0     # of ELM steps 
   EDIFF  = 0.1E-03   stopping-criterion for ELM
   LREAL  =      T    real-space projection
   NLSPLINE    = F    spline interpolate recip. space projectors
   LCOMPAT=      F    compatible to vasp.4.4
   GGA_COMPAT  = T    GGA compatible to vasp.4.4-vasp.4.6
   LMAXPAW     = -100 max onsite density
   LMAXMIX     =    6 max onsite mixed and CHGCAR
   VOSKOWN=      0    Vosko Wilk Nusair interpolation
   ROPT   =   -0.00025  -0.00025  -0.00025  -0.00025
   ROPT   =   -0.00025
 Ionic relaxation
   EDIFFG = -.5E-01   stopping-criterion for IOM
   NSW    =     50    number of steps for IOM
   NBLOCK =      1;   KBLOCK =     50    inner block; outer block 
   IBRION =      2    ionic relax: 0-MD 1-quasi-New 2-CG
   NFREE  =      1    steps in history (QN), initial steepest desc. (CG)
   ISIF   =      2    stress and relaxation
   IWAVPR =     11    prediction:  0-non 1-charg 2-wave 3-comb
   ISYM   =      0    0-nonsym 1-usesym 2-fastsym
   LCORR  =      T    Harris-Foulkes like correction to forces

   POTIM  = 0.1000    time-step for ionic-motion
   TEIN   =    0.0    initial temperature
   TEBEG  =    0.0;   TEEND  =   0.0 temperature during run
   SMASS  =  -3.00    Nose mass-parameter (am)
   estimated Nose-frequenzy (Omega)   =  0.10E-29 period in steps =****** mass=  -0.276E-26a.u.
   SCALEE = 1.0000    scale energy and forces
   NPACO  =    256;   APACO  = 16.0  distance and # of slots for P.C.
   PSTRESS=    0.0 pullay stress

  Mass of Ions in am
   POMASS = 140.12 16.00195.08 16.00 12.01
  Ionic Valenz
   ZVAL   =  12.00  6.00 10.00  6.00  4.00
  Atomic Wigner-Seitz radii
   RWIGS  =  -1.00 -1.00 -1.00 -1.00 -1.00
  virtual crystal weights 
   VCA    =   1.00  1.00  1.00  1.00  1.00
   NELECT =     884.0000    total number of electrons
   NUPDOWN=      -1.0000    fix difference up-down

 DOS related values:
   EMIN   =  10.00;   EMAX   =-10.00  energy-range for DOS
   EFERMI =   0.00
   ISMEAR =     0;   SIGMA  =   0.05  broadening in eV -4-tet -1-fermi 0-gaus

 Electronic relaxation 2 (details)
   IALGO  =     68    algorithm
   LDIAG  =      T    sub-space diagonalisation (order eigenvalues)
   LSUBROT=      F    optimize rotation matrix (better conditioning)
   TURBO    =      0    0=normal 1=particle mesh
   IRESTART =      0    0=no restart 2=restart with 2 vectors
   NREBOOT  =      0    no. of reboots
   NMIN     =      0    reboot dimension
   EREF     =   0.00    reference energy to select bands
   IMIX   =      4    mixing-type and parameters
     AMIX     =   0.20;   BMIX     =  0.00
     AMIX_MAG =   0.80;   BMIX_MAG =  0.00
     AMIN     =   0.10
     WC   =   100.;   INIMIX=   1;  MIXPRE=   1;  MAXMIX= -45

 Intra band minimization:
   WEIMIN = 0.0010     energy-eigenvalue tresh-hold
   EBREAK =  0.42E-07  absolut break condition
   DEPER  =   0.30     relativ break condition  

   TIME   =   0.40     timestep for ELM

  volume/ion in A,a.u.               =      28.46       192.06
  Fermi-wavevector in a.u.,A,eV,Ry     =   1.070788  2.023496 15.600257  1.146587
  Thomas-Fermi vector in A             =   2.206508
 
 Write flags
   LWAVE  =      T    write WAVECAR
   LCHARG =      T    write CHGCAR
   LVTOT  =      F    write LOCPOT, total local potential
   LVHAR  =      F    write LOCPOT, Hartree potential only
   LELF   =      F    write electronic localiz. function (ELF)
   LORBIT =     11    0 simple, 1 ext, 2 COOP (PROOUT)


 Dipole corrections
   LMONO  =      F    monopole corrections only (constant potential shift)
   LDIPOL =      T    correct potential (dipole corrections)
   IDIPOL =      3    1-x, 2-y, 3-z, 4-all directions 
   EPSILON=  1.0000000 bulk dielectric constant

 LDA+U is selected, type is set to LDAUTYPE =  2
   angular momentum for each species LDAUL =     3   -1   -1   -1   -1
   U (eV)           for each species LDAUU =   4.5  0.0  0.0  0.0  0.0
   J (eV)           for each species LDAUJ =   0.0  0.0  0.0  0.0  0.0
 Exchange correlation treatment:
   GGA     =    --    GGA type
   LEXCH   =     8    internal setting for exchange type
   VOSKOWN=      0    Vosko Wilk Nusair interpolation
   LHFCALC =     F    Hartree Fock is set to
   LHFONE  =     F    Hartree Fock one center treatment
   AEXX    =    0.0000 exact exchange contribution

 Linear response parameters
   LEPSILON=     F    determine dielectric tensor
   LRPA    =     F    only Hartree local field effects (RPA)
   LNABLA  =     F    use nabla operator in PAW spheres
   LVEL    =     F    velocity operator in full k-point grid
   LINTERFAST=   F  fast interpolation
   KINTER  =     0    interpolate to denser k-point grid
   CSHIFT  =0.1000    complex shift for real part using Kramers Kronig
   OMEGAMAX=  -1.0    maximum frequency
   DEG_THRESHOLD= 0.2000000E-02 threshold for treating states as degnerate
   RTIME   =    0.100 relaxation time in fs

 Orbital magnetization related:
   ORBITALMAG=     F  switch on orbital magnetization
   LCHIMAG   =     F  perturbation theory with respect to B field
   DQ        =  0.001000  dq finite difference perturbation B field



--------------------------------------------------------------------------------------------------------


 conjugate gradient relaxation of ions
   using selective dynamics as specified on POSCAR
 charge density and potential will be updated during run
 spin polarized calculation
 RMM-DIIS sequential band-by-band and
  variant of blocked Davidson during initial phase
 perform sub-space diagonalisation
    before iterative eigenvector-optimisation
 modified Broyden-mixing scheme, WC =      100.0
 initial mixing is a Kerker type mixing with AMIX =  0.2000 and BMIX =      0.0010
 Hartree-type preconditioning will be used
 using additional bands          150
 real space projection scheme for non local part
 use partial core corrections
 calculate Harris-corrections to forces 
   (improved forces if not selfconsistent)
 use gradient corrections 
 use of overlap-Matrix (Vanderbilt PP)
 Gauss-broadening in eV      SIGMA  =   0.05


--------------------------------------------------------------------------------------------------------


  energy-cutoff  :      400.00
  volume of cell :     3159.12
      direct lattice vectors                 reciprocal lattice vectors
    10.980000000  0.000000000  0.000000000     0.091074681  0.000000000  0.000000000
     0.000000000 11.646048686  0.000000000     0.000000000  0.085866033  0.000000000
     0.000000000  0.000000000 24.705040572     0.000000000  0.000000000  0.040477570

  length of vectors
    10.980000000 11.646048686 24.705040572     0.091074681  0.085866033  0.040477570


 
 old parameters found on file WAVECAR:
  energy-cutoff  :      400.00
  volume of cell :     3159.12
      direct lattice vectors                 reciprocal lattice vectors
    10.980000000  0.000000000  0.000000000     0.091074681  0.000000000  0.000000000
     0.000000000 11.646048686  0.000000000     0.000000000  0.085866033  0.000000000
     0.000000000  0.000000000 24.705040572     0.000000000  0.000000000  0.040477570

  length of vectors

 
 k-points in units of 2pi/SCALE and weight: CeO2-111-3x3-9layers         ! Comment  
   0.00000000  0.00000000  0.00000000       1.000
 
 k-points in reciprocal lattice and weights: CeO2-111-3x3-9layers         ! Comment  
   0.00000000  0.00000000  0.00000000       1.000
 
 position of ions in fractional coordinates (direct lattice) 
   0.77120274  0.16666677  0.00000000
   0.77120274  0.50000010  0.00000000
   0.27120274  0.16666677  0.00000000
   0.77120274  0.83333343  0.00000000
   0.27120274  0.50000010  0.00000000
   0.27120274  0.83333343  0.00000000
   0.52120274  0.00000010  0.07856729
   0.52120274  0.66666677  0.07856729
   0.02120274  0.00000010  0.07856729
   0.52120274  0.33333343  0.07856729
   0.02120274  0.33333343  0.07856729
   0.02120274  0.66666677  0.07856729
   0.77104430  0.16744193  0.15763066
   0.77078466  0.83325890  0.15752401
   0.27052716  0.16674862  0.15786688
   0.77105026  0.49931952  0.15771494
   0.27060737  0.49988650  0.15788508
   0.27102138  0.83324311  0.15666131
   0.01940992  0.66657690  0.23341271
   0.52139467  0.66564926  0.23400082
   0.02046603  0.33339602  0.23533971
   0.01953090  0.00020653  0.23323282
   0.52137841  0.00069394  0.23389994
   0.52007263  0.33326827  0.23418474
   0.77102647  0.49942119  0.31717912
   0.77127572  0.16758176  0.31696327
   0.26784980  0.50036251  0.31724826
   0.27014158  0.83325305  0.31204491
   0.26808235  0.16586487  0.31726543
   0.76963030  0.83320633  0.31680579
   0.01657852  0.00525956  0.38469203
   0.52210317  0.00603596  0.38589665
   0.01637073  0.66167111  0.38513889
   0.52053656  0.66084428  0.38607818
   0.01947427  0.33351841  0.38940567
   0.51944792  0.33341604  0.38501030
   0.64620274  0.33333343  0.00000000
   0.14620274  0.00000010  0.00000000
   0.64620274  0.66666677  0.00000000
   0.89620274  0.00000010  0.00000000
   0.89620274  0.33333343  0.00000000
   0.14620274  0.33333343  0.00000000
   0.39620274  0.66666677  0.00000000
   0.39620274  0.00000010  0.00000000
   0.64620274  0.00000010  0.00000000
   0.39620274  0.33333343  0.00000000
   0.89620274  0.66666677  0.00000000
   0.14620274  0.66666677  0.00000000
   0.39620274  0.83333343  0.07856729
   0.64620274  0.83333343  0.07856729
   0.39620274  0.16666677  0.07856729
   0.14620274  0.16666677  0.07856729
   0.89620274  0.16666677  0.07856729
   0.89620274  0.83333343  0.07856729
   0.64620274  0.16666677  0.07856729
   0.14620274  0.83333343  0.07856729
   0.39620274  0.50000010  0.07856729
   0.14620274  0.50000010  0.07856729
   0.89620274  0.50000010  0.07856729
   0.64620274  0.50000010  0.07856729
   0.64596580  0.99965061  0.15715887
   0.39597339  0.66663169  0.15705641
   0.64602558  0.66692625  0.15727692
   0.89520985  0.66651288  0.15659348
   0.14601329  0.00024596  0.15644831
   0.89529855  0.00012575  0.15653288
   0.39594887  0.99999919  0.15691769
   0.14613007  0.66618079  0.15653547
   0.39541467  0.33315723  0.15739404
   0.89569124  0.33332709  0.15691722
   0.64577563  0.33333278  0.15693612
   0.14605235  0.33348152  0.15754608
   0.64526259  0.16720646  0.23519547
   0.64506196  0.83324288  0.23611624
   0.39525302  0.83330532  0.23499778
   0.89562933  0.49921776  0.23524335
   0.14667611  0.83317108  0.23376520
   0.64518357  0.49951155  0.23529434
   0.39551808  0.16518261  0.23613831
   0.89578184  0.16759532  0.23522484
   0.39557509  0.50098567  0.23598944
   0.14515762  0.50113081  0.23614610
   0.14523076  0.16550565  0.23577621
   0.89576075  0.83328440  0.23457284
   0.64346922  0.33330523  0.31340085
   0.89400219  0.99996911  0.31112666
   0.14385840  0.67324062  0.31262213
   0.39474584  0.33280979  0.31330415
   0.64459000  0.00255344  0.31353452
   0.64402221  0.66454829  0.31375715
   0.39653608  0.99517661  0.31450697
   0.89379065  0.66663650  0.31122917
   0.39608306  0.67057596  0.31412562
   0.89275346  0.33367382  0.31381580
   0.14746533  0.33244838  0.31347155
   0.14387863  0.99451083  0.31195925
   0.63104161  0.83404191  0.38926580
   0.14883769  0.83740605  0.39567127
   0.39272905  0.83179711  0.39769408
   0.40192468  0.16598206  0.39066396
   0.14080900  0.15551009  0.39043268
   0.90518393  0.83319541  0.38884449
   0.89580754  0.15647482  0.39150219
   0.63759015  0.16768779  0.39196273
   0.40144302  0.49944332  0.39048430
   0.89578878  0.51075766  0.39179366
   0.63737304  0.49853909  0.39196905
   0.13984418  0.50982170  0.38960802
   0.25786882  0.78836254  0.45541948
   0.36363094  0.69494837  0.55754440
   0.32701858  0.73295810  0.51681057
 
 position of ions in cartesian coordinates  (Angst):
   8.46780604  1.94100927  0.00000000
   8.46780604  5.82302550  0.00000000
   2.97780604  1.94100927  0.00000000
   8.46780604  9.70504173  0.00000000
   2.97780604  5.82302550  0.00000000
   2.97780604  9.70504173  0.00000000
   5.72280604  0.00000116  1.94100811
   5.72280604  7.76403361  1.94100811
   0.23280604  0.00000116  1.94100811
   5.72280604  3.88201739  1.94100811
   0.23280604  3.88201739  1.94100811
   0.23280604  7.76403361  1.94100811
   8.46606643  1.95003684  3.89427176
   8.46321562  9.70417369  3.89163712
   2.97038825  1.94196256  3.90010760
   8.46613182  5.81509940  3.89635393
   2.97126892  5.82170251  3.90055739
   2.97581478  9.70398987  3.87032413
   0.21312096  7.76298705  5.76647055
   5.72491345  7.75218373  5.78099981
   0.22471701  3.88274628  5.81407704
   0.21444927  0.00240526  5.76202637
   5.72473489  0.00808165  5.77850758
   5.71039743  3.88125847  5.78554339
   8.46587062  5.81628355  7.83592309
   8.46860737  1.95166532  7.83059033
   2.94099085  5.82724621  7.83763122
   2.96615457  9.70410559  7.70908214
   2.94354424  1.93167040  7.83805537
   8.45054068  9.70356151  7.82669990
   0.18203216  0.06125315  9.50383209
   5.73269277  0.07029511  9.53359251
   0.17975059  7.70585393  9.51487189
   5.71549139  7.69622469  9.53807701
   0.21382747  3.88417159  9.62028280
   5.70353821  3.88297944  9.51169516
   7.09530604  3.88201739  0.00000000
   1.60530604  0.00000116  0.00000000
   7.09530604  7.76403361  0.00000000
   9.84030604  0.00000116  0.00000000
   9.84030604  3.88201739  0.00000000
   1.60530604  3.88201739  0.00000000
   4.35030604  7.76403361  0.00000000
   4.35030604  0.00000116  0.00000000
   7.09530604  0.00000116  0.00000000
   4.35030604  3.88201739  0.00000000
   9.84030604  7.76403361  0.00000000
   1.60530604  7.76403361  0.00000000
   4.35030604  9.70504173  1.94100811
   7.09530604  9.70504173  1.94100811
   4.35030604  1.94100927  1.94100811
   1.60530604  1.94100927  1.94100811
   9.84030604  1.94100927  1.94100811
   9.84030604  9.70504173  1.94100811
   7.09530604  1.94100927  1.94100811
   1.60530604  9.70504173  1.94100811
   4.35030604  5.82302550  1.94100811
   1.60530604  5.82302550  1.94100811
   9.84030604  5.82302550  1.94100811
   7.09530604  5.82302550  1.94100811
   7.09270445 11.64197968  3.88261615
   4.34778782  7.76362512  3.88008495
   7.09336083  7.76705555  3.88553269
   9.82940419  7.76224145  3.86864821
   1.60322591  0.00286449  3.86506191
   9.83037803  0.00146450  3.86715116
   4.34751860 11.64603926  3.87665786
   1.60450814  7.75837395  3.86721507
   4.34165303  3.87996536  3.88842614
   9.83468980  3.88194351  3.87664619
   7.09061644  3.88200982  3.87711319
   1.60365481  3.88374198  3.89218222
   7.08498322  1.94729456  5.81051353
   7.08278032  9.70398715  5.83326141
   4.33987812  9.70471429  5.80562975
   9.83401006  5.81391430  5.81169648
   1.61050370  9.70315097  5.77517883
   7.08411556  5.81733584  5.81295633
   4.34278849  1.92372475  5.83380660
   9.83568464  1.95182324  5.81123927
   4.34341453  5.83450346  5.83012862
   1.59383069  5.83619384  5.83399909
   1.59463372  1.92748691  5.82486075
   9.83545307  9.70447073  5.79513162
   7.06529205  3.88168894  7.74258075
   9.81614409 11.64568893  7.68639677
   1.57956526  7.84059303  7.72334239
   4.33430934  3.87591903  7.74019186
   7.07759824  0.02973748  7.74588313
   7.07136392  7.73936174  7.75138315
   4.35396617 11.58987520  7.76990739
   9.81382137  7.76368113  7.68892922
   4.34899196  7.80956022  7.76048620
   9.80243300  3.88598154  7.75283196
   1.61916934  3.87170997  7.74432746
   1.57978735 11.58212159  7.70696602
   6.92883684  9.71329273  9.61682739
   1.63423784  9.75247157  9.77507474
   4.31216502  9.68714967  9.82504841
   4.41313303  1.93303510  9.65136909
   1.54608277  1.81107803  9.64565519
   9.93891957  9.70343434  9.60641880
   9.83596683  1.82231343  9.67207756
   7.00073986  1.95290013  9.68345514
   4.40784432  5.81654119  9.64693048
   9.83576083  5.94830852  9.67927837
   6.99835593  5.80601047  9.68361116
   1.53548906  5.93740828  9.62528199
   2.83139970  9.18130850 11.25115682
   3.99266775  8.09340250 13.77415697
   3.59066405  8.53606576 12.76782603
 


--------------------------------------------------------------------------------------------------------


 use parallel FFT for wavefunctions z direction half grid
 k-point  1 :   0.0000 0.0000 0.0000  plane waves:   28608

 maximum and minimum number of plane-waves per node :      4774     4761

 maximum number of plane-waves:     28608
 maximum index in each direction: 
   IXMAX=   17   IYMAX=   18   IZMAX=   40
   IXMIN=  -17   IYMIN=  -18   IZMIN=    0

 NGX is ok and might be reduce to  70
 NGY is ok and might be reduce to  74
 NGZ is ok and might be reduce to 162

 real space projection operators:
  total allocation   :      68100.42 KBytes
  max/ min on nodes  :      11575.62      11216.70


 parallel 3D FFT for wavefunctions:
    minimum data exchange during FFTs selected (reduces bandwidth)
 parallel 3D FFT for charge:
    minimum data exchange during FFTs selected (reduces bandwidth)


 total amount of memory used by VASP on root node    88872. kBytes
========================================================================

   base      :      30000. kBytes
   nonlr-proj:      13823. kBytes
   fftplans  :      14971. kBytes
   grid      :      23311. kBytes
   one-center:        933. kBytes
   wavefun   :       5834. kBytes
 
     INWAV:  cpu time    1.69: real time    1.73
 Broyden mixing: mesh for mixing (old mesh)
   NGX = 35   NGY = 37   NGZ = 81
  (NGX  =144   NGY  =160   NGZ  =324)
  gives a total of 104895 points

 charge density for first step will be calculated from the start-wavefunctions


--------------------------------------------------------------------------------------------------------


 Maximum index for non-local projection operator          891
 Maximum index for augmentation-charges         2928 (set IRDMAX)


--------------------------------------------------------------------------------------------------------


 initial charge from wavefunction
 First call to EWALD:  gamma=   0.121
 Maximum number of real-space cells 4x 3x 2
 Maximum number of reciprocal cells 2x 2x 4

 FEWALD executed in parallel
    FEWALD:  cpu time    0.01: real time    0.01


----------------------------------------- Iteration    1(   1)  ---------------------------------------


    POTLOK:  cpu time    0.22: real time    0.22
    SETDIJ:  cpu time    2.29: real time    2.29
     EDDAV:  cpu time    3.21: real time    3.23
       DOS:  cpu time    0.00: real time    0.00
    CHARGE:  cpu time    0.85: real time    0.85
    MIXING:  cpu time    0.01: real time    0.01
    --------------------------------------------
      LOOP:  cpu time    6.58: real time    6.61

 eigenvalue-minimisations  :  1296
 total energy-change (2. order) :-0.8856776E+03  (-0.8747701E-05)
 number of electron     883.9999993 magnetization      -2.0000000
 augmentation part      -13.8635496 magnetization      -1.0949753

 DIPCOR: dipole corrections for dipol
 direction  3 min pos   233,
 dipolmoment           0.000000      0.000000      0.870137 electrons x Angstroem
 Tr[quadrupol]    -19434.625810

 energy correction for charged system         0.000000 eV
 dipol+quadrupol energy correction           -0.021689 eV
 added-field ion interaction         14.732423 eV  (added to PSCEN)


 Broyden mixing:
  rms(total) = 0.75589E-03    rms(broyden)= 0.73924E-03
  rms(prec ) = 0.74873E-03
  weight for this iteration     100.00

 Free energy of the ion-electron system (eV)
  ---------------------------------------------------
  alpha Z        PSCENC =      2286.96165946
  Ewald energy   TEWEN  =    247219.86762583
  -Hartree energ DENC   =   -315218.95780306
  -exchange      EXHF   =         0.00000000
  -V(xc)+E(xc)   XCENC  =      2309.64227745
  PAW double counting   =     67306.04361004   -66446.47184892
  entropy T*S    EENTRO =        -0.00000000
  eigenvalues    EBANDS =     -9043.69213699
  atomic energy  EATOM  =     70700.92898532
  ---------------------------------------------------
  free energy    TOTEN  =      -885.67763086 eV

  energy without entropy =     -885.67763086  energy(sigma->0) =     -885.67763086


--------------------------------------------------------------------------------------------------------




----------------------------------------- Iteration    1(   2)  ---------------------------------------


    POTLOK:  cpu time    0.21: real time    0.21
    SETDIJ:  cpu time    2.25: real time    2.25
    EDDIAG:  cpu time    0.98: real time    1.00
  RMM-DIIS:  cpu time    1.54: real time    1.54
    ORTHCH:  cpu time    0.17: real time    0.18
       DOS:  cpu time    0.00: real time    0.00
    --------------------------------------------
      LOOP:  cpu time    5.17: real time    5.19

 eigenvalue-minimisations  :  1052
 total energy-change (2. order) :-0.6821007E-05  (-0.2428929E-05)
 number of electron     883.9999993 magnetization      -2.0000000
 augmentation part      -13.8635496 magnetization      -1.0949753

 DIPCOR: dipole corrections for dipol
 direction  3 min pos   233,
 dipolmoment           0.000000      0.000000      0.870001 electrons x Angstroem
 Tr[quadrupol]    -19434.626905

 energy correction for charged system         0.000000 eV
 dipol+quadrupol energy correction           -0.021682 eV
 added-field ion interaction         14.730124 eV  (added to PSCEN)


 Free energy of the ion-electron system (eV)
  ---------------------------------------------------
  alpha Z        PSCENC =      2286.95936720
  Ewald energy   TEWEN  =    247219.86762583
  -Hartree energ DENC   =   -315218.98781764
  -exchange      EXHF   =         0.00000000
  -V(xc)+E(xc)   XCENC  =      2309.64232393
  PAW double counting   =     67306.04034338   -66446.46850736
  entropy T*S    EENTRO =        -0.00000000
  eigenvalues    EBANDS =     -9043.65995835
  atomic energy  EATOM  =     70700.92898532
  ---------------------------------------------------
  free energy    TOTEN  =      -885.67763768 eV

  energy without entropy =     -885.67763768  energy(sigma->0) =     -885.67763768


--------------------------------------------------------------------------------------------------------




 average (electrostatic) potential at core
  the test charge radii are     1.1513  0.7215  1.2059  0.7215  0.6991
  (the norm of the test charge is              1.0000)
       1 -84.6848       2 -84.6846       3 -84.6879       4 -84.6884       5 -84.6884
       6 -84.6969       7 -84.3314       8 -84.3362       9 -84.3091      10 -84.3276
      11 -84.3147      12 -84.3123      13 -84.3973      14 -84.4155      15 -84.4285
      16 -84.3956      17 -84.4328      18 -84.4084      19 -84.3859      20 -84.4399
      21 -84.3781      22 -84.3752      23 -84.4484      24 -84.4109      25 -84.3325
      26 -84.3365      27 -84.3740      28 -84.5404      29 -84.3815      30 -84.4391
      31 -84.2673      32 -84.4945      33 -84.2563      34 -84.4996      35 -81.0462
      36 -84.3803      37 -73.2009      38 -73.2049      39 -73.2052      40 -73.1997
      41 -73.1978      42 -73.2011      43 -73.2101      44 -73.2093      45 -73.2048
      46 -73.2035      47 -73.1998      48 -73.2054      49 -73.5917      50 -73.5662
      51 -73.5395      52 -73.5436      53 -73.5331      54 -73.5408      55 -73.5498
      56 -73.5815      57 -73.5424      58 -73.5427      59 -73.5303      60 -73.5478
      61 -73.5741      62 -73.5698      63 -73.5732      64 -73.5766      65 -73.5711
      66 -73.5768      67 -73.5695      68 -73.5700      69 -73.5801      70 -73.5193
      71 -73.5608      72 -73.5316      73 -73.4545      74 -73.4957      75 -73.5777
      76 -73.4328      77 -73.5461      78 -73.4534      79 -73.4681      80 -73.4377
      81 -73.4689      82 -73.4639      83 -73.4521      84 -73.4631      85 -73.7516
      86 -73.7012      87 -73.7467      88 -73.6924      89 -73.7773      90 -73.7631
      91 -73.8353      92 -73.7021      93 -73.8241      94 -73.5320      95 -73.4917
      96 -73.7450      97 -73.2239      98 -74.0776      99 -73.9886     100 -73.2807
     101 -73.0668     102 -73.1781     103 -73.0304     104 -73.2290     105 -73.2741
     106 -73.0219     107 -73.2153     108 -73.0682     109 -72.9868     110 -76.5993
     111 -55.8830
 
 
 
 E-fermi :   1.1196     XC(G=0):  -6.0095     alpha+bet : -7.5640


 spin component 1

 k-point     1 :       0.0000    0.0000    0.0000
  band No.  band energies     occupation 
      1     -34.0275      1.00000
      2     -34.0198      1.00000
      3     -33.9914      1.00000
      4     -33.9845      1.00000
      5     -33.9839      1.00000
      6     -33.9811      1.00000
      7     -33.8144      1.00000
      8     -33.7815      1.00000
      9     -33.7115      1.00000
     10     -33.6887      1.00000
     11     -33.6501      1.00000
     12     -33.6118      1.00000
     13     -33.5977      1.00000
     14     -33.5920      1.00000
     15     -33.5778      1.00000
     16     -33.5754      1.00000
     17     -33.5699      1.00000
     18     -33.5513      1.00000
     19     -33.5482      1.00000
     20     -33.5413      1.00000
     21     -33.5345      1.00000
     22     -33.5312      1.00000
     23     -33.5257      1.00000
     24     -33.5110      1.00000
     25     -33.5001      1.00000
     26     -33.4983      1.00000
     27     -33.4933      1.00000
     28     -33.4775      1.00000
     29     -33.4671      1.00000
     30     -33.4537      1.00000
     31     -33.4493      1.00000
     32     -33.4444      1.00000
     33     -33.4396      1.00000
     34     -33.4240      1.00000
     35     -33.4224      1.00000
     36     -31.6444      1.00000
     37     -22.2858      1.00000
     38     -19.0560      1.00000
     39     -19.0228      1.00000
     40     -18.9430      1.00000
     41     -18.8638      1.00000
     42     -18.8090      1.00000
     43     -18.7662      1.00000
     44     -18.7532      1.00000
     45     -18.6949      1.00000
     46     -18.6655      1.00000
     47     -18.6526      1.00000
     48     -18.6077      1.00000
     49     -18.5927      1.00000
     50     -18.5624      1.00000
     51     -18.5455      1.00000
     52     -18.5283      1.00000
     53     -18.5007      1.00000
     54     -18.4850      1.00000
     55     -18.4753      1.00000
     56     -18.4647      1.00000
     57     -18.4485      1.00000
     58     -18.4304      1.00000
     59     -18.4087      1.00000
     60     -18.4062      1.00000
     61     -18.3743      1.00000
     62     -18.3488      1.00000
     63     -18.3006      1.00000
     64     -18.2794      1.00000
     65     -18.2702      1.00000
     66     -18.2264      1.00000
     67     -18.1950      1.00000
     68     -18.1881      1.00000
     69     -18.1695      1.00000
     70     -18.1556      1.00000
     71     -18.0927      1.00000
     72     -18.0656      1.00000
     73     -18.0589      1.00000
     74     -18.0557      1.00000
     75     -18.0501      1.00000
     76     -18.0329      1.00000
     77     -17.9672      1.00000
     78     -17.9633      1.00000
     79     -17.9093      1.00000
     80     -17.8964      1.00000
     81     -17.7743      1.00000
     82     -17.7414      1.00000
     83     -17.6868      1.00000
     84     -17.6677      1.00000
     85     -17.6324      1.00000
     86     -17.5928      1.00000
     87     -17.4305      1.00000
     88     -17.3389      1.00000
     89     -17.1698      1.00000
     90     -17.0083      1.00000
     91     -16.9915      1.00000
     92     -16.9262      1.00000
     93     -16.9162      1.00000
     94     -16.8944      1.00000
     95     -16.8517      1.00000
     96     -16.7901      1.00000
     97     -16.6878      1.00000
     98     -16.6754      1.00000
     99     -16.6225      1.00000
    100     -16.5688      1.00000
    101     -16.5675      1.00000
    102     -16.5618      1.00000
    103     -16.5528      1.00000
    104     -16.5159      1.00000
    105     -16.4985      1.00000
    106     -16.4297      1.00000
    107     -16.4113      1.00000
    108     -16.3267      1.00000
    109     -16.2919      1.00000
    110     -16.2904      1.00000
    111     -16.2895      1.00000
    112     -16.2737      1.00000
    113     -16.2478      1.00000
    114     -16.2453      1.00000
    115     -16.2335      1.00000
    116     -16.2189      1.00000
    117     -16.2162      1.00000
    118     -16.2101      1.00000
    119     -16.1958      1.00000
    120     -16.1913      1.00000
    121     -16.1823      1.00000
    122     -16.1578      1.00000
    123     -16.1222      1.00000
    124     -16.1203      1.00000
    125     -16.1003      1.00000
    126     -16.0986      1.00000
    127     -16.0678      1.00000
    128     -16.0620      1.00000
    129     -16.0557      1.00000
    130     -16.0422      1.00000
    131     -16.0330      1.00000
    132     -16.0241      1.00000
    133     -15.9955      1.00000
    134     -15.9805      1.00000
    135     -15.9728      1.00000
    136     -15.9671      1.00000
    137     -15.9567      1.00000
    138     -15.9390      1.00000
    139     -15.9286      1.00000
    140     -15.9033      1.00000
    141     -15.9010      1.00000
    142     -15.8862      1.00000
    143     -15.8490      1.00000
    144     -15.8244      1.00000
    145     -15.8060      1.00000
    146     -15.7862      1.00000
    147     -15.7758      1.00000
    148     -15.6793      1.00000
    149     -15.6297      1.00000
    150     -15.5939      1.00000
    151     -15.5754      1.00000
    152     -15.5169      1.00000
    153     -15.4569      1.00000
    154     -15.3975      1.00000
    155     -15.3645      1.00000
    156     -15.2860      1.00000
    157     -15.2088      1.00000
    158     -15.2013      1.00000
    159     -15.1697      1.00000
    160     -15.1502      1.00000
    161     -15.1320      1.00000
    162     -15.1254      1.00000
    163     -15.0248      1.00000
    164     -15.0090      1.00000
    165     -14.9181      1.00000
    166     -14.8675      1.00000
    167     -14.7320      1.00000
    168     -14.7033      1.00000
    169     -14.5941      1.00000
    170     -14.5419      1.00000
    171     -14.5032      1.00000
    172     -14.3723      1.00000
    173     -14.3430      1.00000
    174     -14.2080      1.00000
    175     -14.1764      1.00000
    176     -14.1231      1.00000
    177     -14.0252      1.00000
    178     -14.0174      1.00000
    179     -13.9760      1.00000
    180     -13.9694      1.00000
    181     -13.9497      1.00000
    182     -13.9397      1.00000
    183     -13.9246      1.00000
    184     -13.8924      1.00000
    185     -13.8862      1.00000
    186     -13.8715      1.00000
    187     -13.8668      1.00000
    188     -13.8290      1.00000
    189     -13.7536      1.00000
    190     -13.7524      1.00000
    191     -13.7211      1.00000
    192     -13.7092      1.00000
    193     -13.6672      1.00000
    194     -13.6567      1.00000
    195     -13.6494      1.00000
    196     -13.6033      1.00000
    197     -13.5633      1.00000
    198     -13.5424      1.00000
    199     -13.5301      1.00000
    200     -13.4992      1.00000
    201     -13.4514      1.00000
    202     -13.4325      1.00000
    203     -13.3855      1.00000
    204     -13.3509      1.00000
    205     -13.3446      1.00000
    206     -13.3146      1.00000
    207     -13.2711      1.00000
    208     -13.2195      1.00000
    209     -13.1724      1.00000
    210     -13.1557      1.00000
    211     -13.0472      1.00000
    212     -12.9750      1.00000
    213     -12.9495      1.00000
    214     -12.9142      1.00000
    215     -12.8689      1.00000
    216     -12.6703      1.00000
    217     -12.5692      1.00000
    218      -8.6914      1.00000
    219      -6.2451      1.00000
    220      -5.3517      1.00000
    221      -5.2973      1.00000
    222      -3.9873      1.00000
    223      -3.9670      1.00000
    224      -3.9225      1.00000
    225      -3.8066      1.00000
    226      -3.7248      1.00000
    227      -3.6905      1.00000
    228      -3.6722      1.00000
    229      -3.6094      1.00000
    230      -3.5886      1.00000
    231      -3.5440      1.00000
    232      -3.4305      1.00000
    233      -3.3920      1.00000
    234      -3.3335      1.00000
    235      -3.3280      1.00000
    236      -3.2962      1.00000
    237      -3.2847      1.00000
    238      -3.2719      1.00000
    239      -3.2401      1.00000
    240      -3.2126      1.00000
    241      -3.2004      1.00000
    242      -3.1964      1.00000
    243      -3.1697      1.00000
    244      -3.1582      1.00000
    245      -3.1462      1.00000
    246      -3.1434      1.00000
    247      -3.1322      1.00000
    248      -3.1295      1.00000
    249      -3.1033      1.00000
    250      -3.0973      1.00000
    251      -3.0770      1.00000
    252      -3.0553      1.00000
    253      -3.0312      1.00000
    254      -3.0052      1.00000
    255      -2.9887      1.00000
    256      -2.9870      1.00000
    257      -2.9823      1.00000
    258      -2.9632      1.00000
    259      -2.9522      1.00000
    260      -2.9327      1.00000
    261      -2.8963      1.00000
    262      -2.8796      1.00000
    263      -2.8714      1.00000
    264      -2.8476      1.00000
    265      -2.8441      1.00000
    266      -2.8417      1.00000
    267      -2.8321      1.00000
    268      -2.8016      1.00000
    269      -2.7859      1.00000
    270      -2.7741      1.00000
    271      -2.7706      1.00000
    272      -2.7512      1.00000
    273      -2.7296      1.00000
    274      -2.7053      1.00000
    275      -2.6898      1.00000
    276      -2.6793      1.00000
    277      -2.6589      1.00000
    278      -2.6571      1.00000
    279      -2.6376      1.00000
    280      -2.5928      1.00000
    281      -2.5397      1.00000
    282      -2.5111      1.00000
    283      -2.4879      1.00000
    284      -2.4773      1.00000
    285      -2.4632      1.00000
    286      -2.4455      1.00000
    287      -2.4392      1.00000
    288      -2.4325      1.00000
    289      -2.3823      1.00000
    290      -2.3638      1.00000
    291      -2.3471      1.00000
    292      -2.3320      1.00000
    293      -2.3188      1.00000
    294      -2.3061      1.00000
    295      -2.3037      1.00000
    296      -2.3005      1.00000
    297      -2.2946      1.00000
    298      -2.2398      1.00000
    299      -2.2269      1.00000
    300      -2.1976      1.00000
    301      -2.1718      1.00000
    302      -2.1314      1.00000
    303      -2.0986      1.00000
    304      -2.0961      1.00000
    305      -2.0902      1.00000
    306      -2.0572      1.00000
    307      -2.0306      1.00000
    308      -1.9892      1.00000
    309      -1.9761      1.00000
    310      -1.9553      1.00000
    311      -1.9430      1.00000
    312      -1.9375      1.00000
    313      -1.9085      1.00000
    314      -1.8908      1.00000
    315      -1.8652      1.00000
    316      -1.8499      1.00000
    317      -1.8372      1.00000
    318      -1.8254      1.00000
    319      -1.8054      1.00000
    320      -1.8036      1.00000
    321      -1.7931      1.00000
    322      -1.7641      1.00000
    323      -1.7319      1.00000
    324      -1.7136      1.00000
    325      -1.7099      1.00000
    326      -1.7073      1.00000
    327      -1.6935      1.00000
    328      -1.6848      1.00000
    329      -1.6827      1.00000
    330      -1.6796      1.00000
    331      -1.6786      1.00000
    332      -1.6771      1.00000
    333      -1.6610      1.00000
    334      -1.6408      1.00000
    335      -1.6381      1.00000
    336      -1.6338      1.00000
    337      -1.5899      1.00000
    338      -1.5664      1.00000
    339      -1.5528      1.00000
    340      -1.5419      1.00000
    341      -1.5203      1.00000
    342      -1.5003      1.00000
    343      -1.4924      1.00000
    344      -1.4230      1.00000
    345      -1.4211      1.00000
    346      -1.4193      1.00000
    347      -1.3860      1.00000
    348      -1.3758      1.00000
    349      -1.3593      1.00000
    350      -1.3417      1.00000
    351      -1.3164      1.00000
    352      -1.2954      1.00000
    353      -1.2829      1.00000
    354      -1.2757      1.00000
    355      -1.2653      1.00000
    356      -1.2641      1.00000
    357      -1.2346      1.00000
    358      -1.2272      1.00000
    359      -1.2169      1.00000
    360      -1.1996      1.00000
    361      -1.1839      1.00000
    362      -1.1786      1.00000
    363      -1.1646      1.00000
    364      -1.1559      1.00000
    365      -1.1502      1.00000
    366      -1.1333      1.00000
    367      -1.0762      1.00000
    368      -1.0664      1.00000
    369      -1.0501      1.00000
    370      -1.0425      1.00000
    371      -1.0305      1.00000
    372      -1.0124      1.00000
    373      -1.0047      1.00000
    374      -0.9833      1.00000
    375      -0.9763      1.00000
    376      -0.9677      1.00000
    377      -0.9634      1.00000
    378      -0.9496      1.00000
    379      -0.9451      1.00000
    380      -0.9402      1.00000
    381      -0.9306      1.00000
    382      -0.9069      1.00000
    383      -0.9004      1.00000
    384      -0.8973      1.00000
    385      -0.8931      1.00000
    386      -0.8794      1.00000
    387      -0.8729      1.00000
    388      -0.8658      1.00000
    389      -0.8650      1.00000
    390      -0.8218      1.00000
    391      -0.8134      1.00000
    392      -0.8082      1.00000
    393      -0.7992      1.00000
    394      -0.7946      1.00000
    395      -0.7822      1.00000
    396      -0.7718      1.00000
    397      -0.7365      1.00000
    398      -0.7097      1.00000
    399      -0.6692      1.00000
    400      -0.6519      1.00000
    401      -0.6331      1.00000
    402      -0.6215      1.00000
    403      -0.6109      1.00000
    404      -0.5970      1.00000
    405      -0.5874      1.00000
    406      -0.5838      1.00000
    407      -0.5798      1.00000
    408      -0.5733      1.00000
    409      -0.5569      1.00000
    410      -0.5483      1.00000
    411      -0.5426      1.00000
    412      -0.5292      1.00000
    413      -0.4756      1.00000
    414      -0.4649      1.00000
    415      -0.4581      1.00000
    416      -0.4461      1.00000
    417      -0.4228      1.00000
    418      -0.4127      1.00000
    419      -0.4031      1.00000
    420      -0.3891      1.00000
    421      -0.3781      1.00000
    422      -0.3746      1.00000
    423      -0.3722      1.00000
    424      -0.3610      1.00000
    425      -0.3551      1.00000
    426      -0.3489      1.00000
    427      -0.3374      1.00000
    428      -0.3197      1.00000
    429      -0.3135      1.00000
    430      -0.2966      1.00000
    431      -0.2687      1.00000
    432      -0.2608      1.00000
    433      -0.2398      1.00000
    434      -0.2136      1.00000
    435      -0.1530      1.00000
    436      -0.0716      1.00000
    437       0.0158      1.00000
    438       0.0395      1.00000
    439       0.0599      1.00000
    440       0.1722      1.00000
    441       0.1752      1.00000
    442       1.3450      0.00000
    443       1.7964      0.00000
    444       1.8859      0.00000
    445       1.8889      0.00000
    446       1.8896      0.00000
    447       1.8938      0.00000
    448       1.9031      0.00000
    449       1.9059      0.00000
    450       1.9079      0.00000
    451       1.9272      0.00000
    452       1.9306      0.00000
    453       1.9704      0.00000
    454       1.9816      0.00000
    455       1.9826      0.00000
    456       1.9849      0.00000
    457       2.0037      0.00000
    458       2.0074      0.00000
    459       2.0133      0.00000
    460       2.0160      0.00000
    461       2.0195      0.00000
    462       2.0464      0.00000
    463       2.0529      0.00000
    464       2.0576      0.00000
    465       2.0799      0.00000
    466       2.0848      0.00000
    467       2.0905      0.00000
    468       2.0926      0.00000
    469       2.0941      0.00000
    470       2.0982      0.00000
    471       2.1011      0.00000
    472       2.1066      0.00000
    473       2.1107      0.00000
    474       2.1119      0.00000
    475       2.1170      0.00000
    476       2.1225      0.00000
    477       2.1232      0.00000
    478       2.1248      0.00000
    479       2.1261      0.00000
    480       2.1311      0.00000
    481       2.1370      0.00000
    482       2.1437      0.00000
    483       2.1443      0.00000
    484       2.1548      0.00000
    485       2.1609      0.00000
    486       2.1663      0.00000
    487       2.1744      0.00000
    488       2.1808      0.00000
    489       2.1862      0.00000
    490       2.1892      0.00000
    491       2.1918      0.00000
    492       2.2026      0.00000
    493       2.2126      0.00000
    494       2.2142      0.00000
    495       2.2168      0.00000
    496       2.2202      0.00000
    497       2.2285      0.00000
    498       2.2327      0.00000
    499       2.2338      0.00000
    500       2.2356      0.00000
    501       2.2377      0.00000
    502       2.2423      0.00000
    503       2.2455      0.00000
    504       2.2494      0.00000
    505       2.2538      0.00000
    506       2.2596      0.00000
    507       2.2614      0.00000
    508       2.2634      0.00000
    509       2.2638      0.00000
    510       2.2688      0.00000
    511       2.2715      0.00000
    512       2.2733      0.00000
    513       2.2774      0.00000
    514       2.2796      0.00000
    515       2.2819      0.00000
    516       2.2863      0.00000
    517       2.2922      0.00000
    518       2.2959      0.00000
    519       2.2992      0.00000
    520       2.3006      0.00000
    521       2.3042      0.00000
    522       2.3052      0.00000
    523       2.3072      0.00000
    524       2.3084      0.00000
    525       2.3123      0.00000
    526       2.3154      0.00000
    527       2.3168      0.00000
    528       2.3173      0.00000
    529       2.3205      0.00000
    530       2.3220      0.00000
    531       2.3252      0.00000
    532       2.3262      0.00000
    533       2.3296      0.00000
    534       2.3300      0.00000
    535       2.3340      0.00000
    536       2.3350      0.00000
    537       2.3354      0.00000
    538       2.3376      0.00000
    539       2.3396      0.00000
    540       2.3421      0.00000
    541       2.3426      0.00000
    542       2.3489      0.00000
    543       2.3512      0.00000
    544       2.3524      0.00000
    545       2.3571      0.00000
    546       2.3576      0.00000
    547       2.3626      0.00000
    548       2.3647      0.00000
    549       2.3652      0.00000
[...]
      9.84031      3.88202      0.00000        -1.139159     -0.002042     -0.462118
      1.60531      3.88202      0.00000         1.141971     -0.001617     -0.462604
      4.35031      7.76403      0.00000        -1.137268      0.017468     -0.452219
      4.35031      0.00000      0.00000        -1.137138     -0.016474     -0.453704
      7.09531      0.00000      0.00000         1.132951     -0.005588     -0.453241
      4.35031      3.88202      0.00000        -1.138638     -0.001436     -0.461921
      9.84031      7.76403      0.00000        -1.143362      0.006032     -0.467655
      1.60531      7.76403      0.00000         1.148025      0.015477     -0.462021
      4.35031      9.70504      1.94101        -0.344517     -0.003282     -0.347139
      7.09531      9.70504      1.94101         0.340090     -0.001692     -0.312432
      4.35031      1.94101      1.94101        -0.362654      0.009652     -0.292560
      1.60531      1.94101      1.94101         0.363583      0.035589     -0.306659
      9.84031      1.94101      1.94101        -0.352247      0.015076     -0.335083
      9.84031      9.70504      1.94101        -0.356881     -0.000366     -0.310145
      7.09531      1.94101      1.94101         0.348078     -0.009805     -0.312751
      1.60531      9.70504      1.94101         0.360296     -0.004879     -0.352745
      4.35031      5.82303      1.94101        -0.364444     -0.013582     -0.284792
      1.60531      5.82303      1.94101         0.365453     -0.033687     -0.311943
      9.84031      5.82303      1.94101        -0.352630     -0.013941     -0.332520
      7.09531      5.82303      1.94101         0.347272      0.010491     -0.312981
      7.09245     11.64235      3.88364         0.000217      0.000771      0.000783
      4.34708      7.76197      3.87857        -0.000195     -0.001251     -0.001915
      7.09257      7.76696      3.88424         0.000510     -0.001147     -0.002175
      9.82988      7.76156      3.87014         0.001445     -0.000627      0.001098
      1.60480      0.00429      3.86660         0.001061      0.001240      0.000592
      9.82928      0.00298      3.86944         0.000151      0.000606      0.000745
      4.34690      0.00110      3.87731         0.000392      0.000865      0.000827
      1.60479      7.75738      3.86834        -0.000262     -0.000917      0.000935
      4.34188      3.88023      3.88822        -0.000024     -0.000020     -0.000858
      9.83451      3.88199      3.87719         0.000927     -0.000053      0.000030
      7.08959      3.88244      3.87700         0.000486      0.000408     -0.000656
      1.60460      3.88377      3.89247         0.000761     -0.000313     -0.000441
      7.08326      1.94597      5.80962        -0.000378     -0.001024     -0.001432
      7.08380      9.70409      5.83416         0.001822      0.001205      0.001821
      4.34040      9.70505      5.80603         0.001286      0.001538     -0.000362
      9.83646      5.81579      5.80964         0.001575      0.000972     -0.001763
      1.60966      9.70383      5.77624        -0.000878     -0.000229     -0.000514
      7.08277      5.81869      5.81266         0.000836     -0.000524     -0.001119
      4.34283      1.92108      5.83383         0.000414     -0.001604     -0.001935
      9.83685      1.95027      5.81016         0.000464     -0.000042     -0.001361
      4.34301      5.83597      5.83026        -0.000762     -0.000291     -0.000514
      1.59333      5.83803      5.83277         0.000752      0.001146     -0.000551
      1.59399      1.92723      5.82437         0.000172     -0.000160     -0.000387
      9.83487      9.70454      5.79737         0.000581     -0.001045      0.003060
      7.06556      3.88120      7.74211         0.000779      0.000357     -0.000997
      9.81518      0.00046      7.68901        -0.000376     -0.000996      0.001855
      1.57790      7.83904      7.72235        -0.000767     -0.001729     -0.000623
      4.33625      3.87717      7.73921         0.001037      0.001259     -0.000519
      7.07899      0.02906      7.74665         0.000901     -0.001162     -0.000913
      7.07483      7.73851      7.75304         0.001689      0.000120      0.001758
      4.35192     11.59311      7.77006         0.001594      0.002696      0.000914
      9.81349      7.76311      7.69196        -0.000846      0.000790     -0.000181
      4.34703      7.80630      7.76131         0.001081     -0.003547      0.002564
      9.80334      3.88515      7.75068        -0.001114     -0.000398     -0.005593
      1.61807      3.87256      7.74292         0.003408      0.001683     -0.003677
      1.58036     11.58224      7.70770        -0.000690     -0.000285      0.002367
      6.93213      9.71219      9.61352         0.002058     -0.001413     -0.003546
      1.63401      9.75082      9.78028         0.002531     -0.003868      0.007830
      4.31794      9.68873      9.81923         0.005356      0.003478     -0.009138
      4.41158      1.93265      9.65431         0.000421     -0.000777      0.001560
      1.54852      1.80766      9.64683         0.002717     -0.004909     -0.001655
      9.93769      9.70452      9.60344         0.000741      0.001876     -0.004239
      9.83435      1.81925      9.67124        -0.000515     -0.003993     -0.002210
      7.00122      1.95283      9.68398        -0.000409     -0.001541     -0.000988
      4.40864      5.81697      9.64677         0.000101      0.000501     -0.001932
      9.83167      5.95085      9.67858        -0.002752      0.001729     -0.002620
      6.99580      5.80734      9.68350        -0.000898      0.001916     -0.001143
      1.53977      5.94051      9.62642         0.005627      0.003597     -0.002375
      2.83158      9.18375     11.24674         0.002694      0.009638     -0.020632
      4.00841      8.09325     13.77128         0.042290     -0.002569     -0.002387
      3.59440      8.53596     12.76858         0.013569      0.012103     -0.027922
 -----------------------------------------------------------------------------------
    total drift:                               -0.087786      0.008761      0.112081


--------------------------------------------------------------------------------------------------------



  FREE ENERGIE OF THE ION-ELECTRON SYSTEM (eV)
  ---------------------------------------------------
  free  energy   TOTEN  =      -906.54777598 eV

  energy  without entropy=     -906.54777598  energy(sigma->0) =     -906.54777598
 
 d Force = 0.1110559E-03[ 0.591E-04, 0.163E-03]  d Energy = 0.1588850E-03-0.478E-04
 d Force =-0.8747789E+00[-0.875E+00,-0.874E+00]  d Ewald  =-0.8747793E+00 0.431E-06


--------------------------------------------------------------------------------------------------------


    POTLOK:  cpu time    2.48: real time    2.48


--------------------------------------------------------------------------------------------------------


 stress matrix after NEB project (eV)
    -71.37120      0.05624      1.16296
      0.05624   -124.01874      0.04619
      1.16342      0.04605    -68.30306
  FORCES: max atom, RMS     0.042435    0.006771
  FORCE total and by dimension    0.071339    0.042290
  Stress total and by dimension  158.563934  124.018740


--------------------------------------------------------------------------------------------------------


  
 reached required accuracy - stopping structural energy minimisation
 writing wavefunctions
     LOOP+:  cpu time   41.50: real time   43.31
    4ORBIT:  cpu time    0.00: real time    0.00
 


 total charge     
 
# of ion     s       p       d       f       tot
------------------------------------------------
  1        1.992   5.764   0.872   0.774   9.402
  2        1.992   5.764   0.872   0.774   9.401
  3        1.992   5.764   0.872   0.774   9.401
  4        1.992   5.764   0.872   0.774   9.402
  5        1.992   5.764   0.872   0.774   9.401
  6        1.991   5.764   0.872   0.775   9.402
  7        1.993   5.819   0.903   0.722   9.436
  8        1.993   5.818   0.902   0.722   9.436
  9        1.994   5.819   0.905   0.723   9.441
 10        1.993   5.818   0.902   0.722   9.435
 11        1.993   5.818   0.901   0.721   9.433
 12        1.994   5.819   0.905   0.723   9.440
 13        1.995   5.820   0.912   0.725   9.450
 14        1.994   5.820   0.911   0.724   9.450
 15        1.994   5.819   0.907   0.723   9.444
 16        1.994   5.820   0.911   0.725   9.450
 17        1.994   5.819   0.907   0.723   9.443
 18        1.995   5.821   0.917   0.727   9.460
 19        1.996   5.821   0.923   0.728   9.468
 20        1.995   5.820   0.917   0.726   9.457
 21        1.994   5.819   0.909   0.724   9.446
 22        1.996   5.822   0.925   0.728   9.470
 23        1.995   5.820   0.917   0.726   9.458
 24        1.995   5.820   0.916   0.726   9.456
 25        1.993   5.818   0.916   0.725   9.452
 26        1.994   5.818   0.916   0.725   9.453
 27        1.993   5.816   0.910   0.724   9.442
 28        1.996   5.819   0.915   0.731   9.461
 29        1.992   5.816   0.908   0.723   9.440
 30        1.992   5.816   0.901   0.722   9.431
 31        2.003   5.783   1.023   0.779   9.587
 32        2.002   5.777   0.996   0.772   9.547
 33        2.002   5.782   1.017   0.778   9.580
 34        2.001   5.780   0.985   0.769   9.535
 35        2.022   5.752   0.686   1.160   9.619
 36        2.003   5.779   1.000   0.774   9.557
 37        1.600   3.384   0.000   0.000   4.985
 38        1.600   3.384   0.000   0.000   4.985
 39        1.600   3.384   0.000   0.000   4.985
 40        1.600   3.384   0.000   0.000   4.984
 41        1.600   3.384   0.000   0.000   4.984
 42        1.600   3.384   0.000   0.000   4.984
 43        1.600   3.384   0.000   0.000   4.985
 44        1.600   3.384   0.000   0.000   4.985
 45        1.600   3.384   0.000   0.000   4.985
 46        1.600   3.384   0.000   0.000   4.984
 47        1.600   3.384   0.000   0.000   4.984
 48        1.600   3.384   0.000   0.000   4.985
 49        1.597   3.458   0.000   0.000   5.055
 50        1.597   3.456   0.000   0.000   5.053
 51        1.596   3.455   0.000   0.000   5.051
 52        1.596   3.456   0.000   0.000   5.052
 53        1.596   3.456   0.000   0.000   5.052
 54        1.596   3.456   0.000   0.000   5.052
 55        1.597   3.456   0.000   0.000   5.052
 56        1.597   3.459   0.000   0.000   5.056
 57        1.596   3.455   0.000   0.000   5.051
 58        1.596   3.456   0.000   0.000   5.052
 59        1.596   3.456   0.000   0.000   5.052
 60        1.596   3.456   0.000   0.000   5.052
 61        1.598   3.465   0.000   0.000   5.063
 62        1.598   3.464   0.000   0.000   5.062
 63        1.598   3.465   0.000   0.000   5.063
 64        1.598   3.467   0.000   0.000   5.065
 65        1.598   3.466   0.000   0.000   5.064
 66        1.598   3.467   0.000   0.000   5.065
 67        1.598   3.464   0.000   0.000   5.062
 68        1.598   3.466   0.000   0.000   5.064
 69        1.598   3.465   0.000   0.000   5.063
 70        1.598   3.463   0.000   0.000   5.061
 71        1.598   3.466   0.000   0.000   5.064
 72        1.598   3.462   0.000   0.000   5.060
 73        1.597   3.455   0.000   0.000   5.052
 74        1.597   3.453   0.000   0.000   5.051
 75        1.598   3.461   0.000   0.000   5.059
 76        1.597   3.456   0.000   0.000   5.053
 77        1.598   3.463   0.000   0.000   5.060
 78        1.597   3.454   0.000   0.000   5.052
 79        1.597   3.452   0.000   0.000   5.049
 80        1.597   3.457   0.000   0.000   5.054
 81        1.597   3.452   0.000   0.000   5.050
 82        1.597   3.455   0.000   0.000   5.052
 83        1.597   3.455   0.000   0.000   5.052
 84        1.598   3.455   0.000   0.000   5.053
 85        1.599   3.478   0.000   0.000   5.077
 86        1.599   3.478   0.000   0.000   5.077
 87        1.599   3.474   0.000   0.000   5.073
 88        1.598   3.474   0.000   0.000   5.073
 89        1.599   3.476   0.000   0.000   5.076
 90        1.599   3.475   0.000   0.000   5.074
 91        1.599   3.473   0.000   0.000   5.071
 92        1.599   3.478   0.000   0.000   5.077
 93        1.599   3.473   0.000   0.000   5.072
 94        1.597   3.476   0.000   0.000   5.073
 95        1.597   3.474   0.000   0.000   5.071
 96        1.599   3.475   0.000   0.000   5.074
 97        1.601   3.406   0.000   0.000   5.007
 98        1.592   3.445   0.000   0.000   5.037
 99        1.599   3.384   0.000   0.000   4.983
100        1.602   3.414   0.000   0.000   5.017
101        1.602   3.425   0.000   0.000   5.027
102        1.601   3.412   0.000   0.000   5.013
103        1.602   3.428   0.000   0.000   5.029
104        1.602   3.416   0.000   0.000   5.017
105        1.603   3.416   0.000   0.000   5.018
106        1.602   3.427   0.000   0.000   5.029
107        1.602   3.415   0.000   0.000   5.017
108        1.603   3.427   0.000   0.000   5.029
109        0.746   0.621   8.072   0.000   9.439
110        1.635   3.547   0.000   0.000   5.182
111        0.960   1.588   0.000   0.000   2.548
------------------------------------------------
tot      190.279 462.501  40.865  27.062 720.707

 


 magnetization (x)
 
# of ion     s       p       d       f       tot
------------------------------------------------
  1        0.000   0.000  -0.000  -0.000  -0.000
  2       -0.000   0.000  -0.000  -0.000  -0.000
  3       -0.000   0.000   0.000  -0.000  -0.000
  4        0.000   0.000   0.000  -0.000   0.000
  5       -0.000   0.000  -0.000  -0.000  -0.000
  6        0.000  -0.000   0.000  -0.000  -0.000
  7       -0.000   0.000  -0.000   0.000   0.000
  8        0.000  -0.000   0.000   0.000   0.000
  9        0.000   0.000   0.000   0.000   0.000
 10       -0.000  -0.000  -0.000  -0.000  -0.000
 11        0.000   0.000   0.000  -0.000  -0.000
 12        0.000   0.000   0.000   0.000   0.000
 13       -0.000   0.000   0.000  -0.000  -0.000
 14        0.000   0.000   0.000   0.000   0.000
 15       -0.000   0.000   0.000  -0.000  -0.000
 16       -0.000   0.000   0.000  -0.000  -0.000
 17       -0.000   0.000   0.000  -0.000  -0.000
 18        0.000   0.000   0.000   0.000   0.000
 19        0.000   0.000  -0.000  -0.000  -0.000
 20        0.000   0.000   0.000   0.000   0.000
 21        0.000   0.000  -0.000  -0.004  -0.004
 22       -0.000  -0.000   0.000  -0.000  -0.000
 23        0.000   0.000   0.000  -0.000   0.000
 24       -0.000  -0.000   0.000  -0.000  -0.000
 25        0.000   0.000  -0.000  -0.005  -0.005
 26        0.000   0.000  -0.000  -0.004  -0.004
 27       -0.000   0.000  -0.000  -0.001  -0.001
 28       -0.000  -0.000   0.001  -0.008  -0.008
 29       -0.000   0.000  -0.000  -0.002  -0.002
 30        0.000   0.000   0.000  -0.001  -0.001
 31        0.000  -0.000  -0.000  -0.010  -0.011
 32       -0.000  -0.000  -0.003  -0.036  -0.039
 33       -0.000  -0.001  -0.002  -0.015  -0.018
 34        0.000   0.000   0.001  -0.003  -0.002
 35        0.003   0.007  -0.013  -0.975  -0.977
 36        0.000   0.000  -0.000  -0.002  -0.002
 37        0.000   0.000   0.000   0.000   0.000
 38        0.000  -0.000   0.000   0.000  -0.000
 39        0.000  -0.000   0.000   0.000  -0.000
 40        0.000  -0.000   0.000   0.000  -0.000
 41        0.000   0.000   0.000   0.000   0.000
 42        0.000   0.000   0.000   0.000   0.000
 43        0.000  -0.000   0.000   0.000  -0.000
 44        0.000  -0.000   0.000   0.000  -0.000
 45        0.000   0.000   0.000   0.000   0.000
 46        0.000   0.000   0.000   0.000   0.000
 47        0.000  -0.000   0.000   0.000  -0.000
 48        0.000  -0.000   0.000   0.000  -0.000
 49       -0.000  -0.000   0.000   0.000  -0.000
 50       -0.000  -0.000   0.000   0.000  -0.000
 51       -0.000  -0.000   0.000   0.000  -0.000
 52       -0.000  -0.000   0.000   0.000  -0.000
 53        0.000   0.000   0.000   0.000   0.000
 54        0.000  -0.000   0.000   0.000  -0.000
 55        0.000   0.000   0.000   0.000   0.000
 56        0.000  -0.000   0.000   0.000  -0.000
 57       -0.000  -0.000   0.000   0.000  -0.000
 58       -0.000   0.000   0.000   0.000   0.000
 59        0.000   0.000   0.000   0.000   0.000
 60        0.000   0.000   0.000   0.000   0.000
 61        0.000  -0.000   0.000   0.000  -0.000
 62        0.000   0.000   0.000   0.000   0.000
 63        0.000  -0.000   0.000   0.000  -0.000
 64        0.000   0.000   0.000   0.000   0.000
 65       -0.000   0.000   0.000   0.000   0.000
 66        0.000   0.000   0.000   0.000   0.000
 67        0.000   0.000   0.000   0.000   0.000
 68        0.000   0.000   0.000   0.000   0.000
 69       -0.000   0.000   0.000   0.000   0.000
 70        0.000   0.000   0.000   0.000   0.000
 71        0.000   0.000   0.000   0.000   0.000
 72        0.000   0.000   0.000   0.000   0.000
 73        0.000   0.000   0.000   0.000   0.000
 74        0.000   0.000   0.000   0.000   0.000
 75        0.000   0.000   0.000   0.000   0.000
 76        0.000   0.000   0.000   0.000   0.000
 77       -0.000  -0.001   0.000   0.000  -0.001
 78        0.000   0.000   0.000   0.000   0.000
 79       -0.000  -0.000   0.000   0.000  -0.000
 80        0.000   0.000   0.000   0.000   0.000
 81        0.000  -0.000   0.000   0.000  -0.000
 82        0.000   0.000   0.000   0.000   0.000
 83        0.000   0.000   0.000   0.000   0.000
 84        0.000   0.000   0.000   0.000   0.000
 85        0.000   0.000   0.000   0.000   0.000
 86        0.000   0.000   0.000   0.000   0.000
 87        0.000   0.001   0.000   0.000   0.001
 88        0.000   0.000   0.000   0.000   0.000
 89        0.000   0.000   0.000   0.000   0.001
 90        0.000  -0.000   0.000   0.000  -0.000
 91       -0.000  -0.002   0.000   0.000  -0.002
 92       -0.000  -0.000   0.000   0.000  -0.000
 93       -0.000  -0.001   0.000   0.000  -0.001
 94        0.000   0.007   0.000   0.000   0.008
 95        0.000   0.003   0.000   0.000   0.004
 96        0.000   0.000   0.000   0.000   0.000
 97       -0.000  -0.010   0.000   0.000  -0.010
 98       -0.001  -0.059   0.000   0.000  -0.060
 99       -0.008  -0.181   0.000   0.000  -0.189
100        0.000   0.002   0.000   0.000   0.002
101        0.000   0.003   0.000   0.000   0.004
102       -0.000  -0.007   0.000   0.000  -0.007
103        0.000   0.004   0.000   0.000   0.005
104        0.000   0.004   0.000   0.000   0.004
105        0.000   0.000   0.000   0.000   0.000
106        0.000   0.005   0.000   0.000   0.005
107        0.000   0.000   0.000   0.000   0.000
108        0.000   0.002   0.000   0.000   0.002
109       -0.051  -0.049  -0.321   0.000  -0.422
110       -0.001  -0.013   0.000   0.000  -0.014
111        0.001  -0.000   0.000   0.000   0.000
------------------------------------------------
tot       -0.056  -0.284  -0.340  -1.065  -1.745

 

 total amount of memory used by VASP on root node    88872. kBytes
========================================================================

   base      :      30000. kBytes
   nonlr-proj:      13823. kBytes
   fftplans  :      14971. kBytes
   grid      :      23311. kBytes
   one-center:        933. kBytes
   wavefun   :       5834. kBytes
 
  
  
 General timing and accounting informations for this job:
 ========================================================
  
                  Total CPU time used (sec):     1211.569
                            User time (sec):     1183.652
                          System time (sec):       27.917
                         Elapsed time (sec):     1223.264
  
                   Maximum memory used (kb):      311500.
                   Average memory used (kb):           0.
  
                          Minor page faults:       474493
                          Major page faults:            5
                 Voluntary context switches:       122231
