       N       E                     dE             d eps       ncg     rms          rms(c)
DAV:   1    -0.890612371473E+03   -0.89061E+03   -0.46707E-04  2592   0.579E-02    0.104E-01
RMM:   2    -0.890612320408E+03    0.51064E-04   -0.37031E-04  1678   0.321E-02
   1 F= -.91155882E+03 E0= -.91155882E+03  d E =-.911559E+03  mag=     0.0000
       N       E                     dE             d eps       ncg     rms          rms(c)
DAV:   1    -0.890613235176E+03   -0.86370E-03   -0.54458E-02  2944   0.212E-01    0.524E-02
RMM:   2    -0.890613312329E+03   -0.77153E-04   -0.11355E-03  1800   0.465E-02    0.301E-02
RMM:   3    -0.890613328825E+03   -0.16496E-04   -0.14501E-04  1352   0.216E-02
   2 F= -.91155976E+03 E0= -.91155976E+03  d E =-.946083E-03  mag=    -0.0000
       N       E                     dE             d eps       ncg     rms          rms(c)
DAV:   1    -0.890614774933E+03   -0.14626E-02   -0.13653E-01  2432   0.322E-01    0.775E-02
RMM:   2    -0.890614959783E+03   -0.18485E-03   -0.26393E-03  1963   0.634E-02    0.573E-02
RMM:   3    -0.890614994464E+03   -0.34681E-04   -0.31545E-04  1291   0.249E-02
   3 F= -.91156133E+03 E0= -.91156133E+03  d E =-.157008E-02  mag=    -0.0000
       N       E                     dE             d eps       ncg     rms          rms(c)
DAV:   1    -0.890614504220E+03    0.45556E-03   -0.12640E-02  2624   0.103E-01    0.253E-02
RMM:   2    -0.890614538622E+03   -0.34403E-04   -0.24813E-04  1314   0.241E-02
   4 F= -.91156090E+03 E0= -.91156090E+03  d E =0.428366E-03  mag=     0.0000
       N       E                     dE             d eps       ncg     rms          rms(c)
DAV:   1    -0.890616005807E+03   -0.15016E-02   -0.13993E-01  2400   0.331E-01    0.740E-02
RMM:   2    -0.890616211689E+03   -0.20588E-03   -0.27396E-03  2017   0.694E-02    0.473E-02
RMM:   3    -0.890616248525E+03   -0.36836E-04   -0.31604E-04  1376   0.276E-02
   5 F= -.91156250E+03 E0= -.91156250E+03  d E =-.159302E-02  mag=    -0.0000
       N       E                     dE             d eps       ncg     rms          rms(c)
DAV:   1    -0.890618981886E+03   -0.27702E-02   -0.24733E+00  2384   0.136E+00    0.298E-01
RMM:   2    -0.890622880889E+03   -0.38990E-02   -0.46939E-02  2814   0.260E-01    0.196E-01
RMM:   3    -0.890623363500E+03   -0.48261E-03   -0.52320E-03  2176   0.667E-02    0.150E-01
RMM:   4    -0.890623595637E+03   -0.23214E-03   -0.92428E-04  1798   0.408E-02    0.647E-02
RMM:   5    -0.890623711567E+03   -0.11593E-03   -0.27350E-04  1534   0.267E-02    0.317E-02
RMM:   6    -0.890623721687E+03   -0.10120E-04   -0.93769E-05  1426   0.221E-02
   6 F= -.91156941E+03 E0= -.91156941E+03  d E =-.691597E-02  mag=     0.0000
       N       E                     dE             d eps       ncg     rms          rms(c)
DAV:   1    -0.890573542048E+03    0.50170E-01   -0.15522E+01  2368   0.341E+00    0.741E-01
RMM:   2    -0.890600875964E+03   -0.27334E-01   -0.31550E-01  2852   0.683E-01    0.451E-01
RMM:   3    -0.890603713184E+03   -0.28372E-02   -0.34984E-02  2952   0.177E-01    0.359E-01
RMM:   4    -0.890604318453E+03   -0.60527E-03   -0.67374E-03  2376   0.646E-02    0.214E-01
RMM:   5    -0.890605040668E+03   -0.72222E-03   -0.26117E-03  2136   0.512E-02    0.707E-02
RMM:   6    -0.890605088534E+03   -0.47866E-04   -0.42741E-04  1564   0.327E-02
   7 F= -.91155219E+03 E0= -.91155219E+03  d E =0.172186E-01  mag=    -0.0000
       N       E                     dE             d eps       ncg     rms          rms(c)
DAV:   1    -0.890606544314E+03   -0.15036E-02   -0.47176E+00  2384   0.188E+00    0.392E-01
RMM:   2    -0.890614127521E+03   -0.75832E-02   -0.88913E-02  2807   0.365E-01    0.247E-01
RMM:   3    -0.890614953118E+03   -0.82560E-03   -0.99860E-03  2479   0.959E-02    0.189E-01
RMM:   4    -0.890615137990E+03   -0.18487E-03   -0.15855E-03  1949   0.484E-02    0.879E-02
RMM:   5    -0.890615320288E+03   -0.18230E-03   -0.48528E-04  1577   0.291E-02    0.439E-02
RMM:   6    -0.890615332288E+03   -0.11999E-04   -0.12009E-04  1259   0.234E-02
   8 F= -.91156168E+03 E0= -.91156168E+03  d E =-.948668E-02  mag=    -0.0000
       N       E                     dE             d eps       ncg     rms          rms(c)
DAV:   1    -0.890613404263E+03    0.19160E-02   -0.13174E-01  2352   0.314E-01    0.647E-02
RMM:   2    -0.890613576724E+03   -0.17246E-03   -0.22487E-03  1726   0.612E-02    0.429E-02
RMM:   3    -0.890613598233E+03   -0.21509E-04   -0.27539E-04  1231   0.271E-02
   9 F= -.91156009E+03 E0= -.91156009E+03  d E =0.158983E-02  mag=     0.0000
       N       E                     dE             d eps       ncg     rms          rms(c)
DAV:   1    -0.890615562558E+03   -0.19858E-02   -0.28681E-01  2368   0.458E-01    0.906E-02
RMM:   2    -0.890616017257E+03   -0.45470E-03   -0.52840E-03  2034   0.845E-02    0.503E-02
RMM:   3    -0.890616077213E+03   -0.59956E-04   -0.60230E-04  1334   0.342E-02
  10 F= -.91156240E+03 E0= -.91156240E+03  d E =-.230614E-02  mag=    -0.0000
       N       E                     dE             d eps       ncg     rms          rms(c)
DAV:   1    -0.890617823265E+03   -0.18060E-02   -0.20576E-01  2384   0.393E-01    0.990E-02
RMM:   2    -0.890618105867E+03   -0.28260E-03   -0.40097E-03  2134   0.762E-02    0.725E-02
RMM:   3    -0.890618163972E+03   -0.58104E-04   -0.52263E-04  1342   0.284E-02
  11 F= -.91156435E+03 E0= -.91156435E+03  d E =-.195354E-02  mag=     0.0000
       N       E                     dE             d eps       ncg     rms          rms(c)
DAV:   1    -0.890617339368E+03    0.76650E-03   -0.31123E-02  2592   0.158E-01    0.370E-02
RMM:   2    -0.890617416045E+03   -0.76677E-04   -0.61901E-04  1476   0.343E-02
  12 F= -.91156366E+03 E0= -.91156366E+03  d E =0.689799E-03  mag=     0.0000
       N       E                     dE             d eps       ncg     rms          rms(c)
DAV:   1    -0.890615269772E+03    0.20696E-02   -0.16161E-01  2368   0.372E-01    0.754E-02
RMM:   2    -0.890615564446E+03   -0.29467E-03   -0.36329E-03  2398   0.858E-02    0.513E-02
RMM:   3    -0.890615598585E+03   -0.34140E-04   -0.40709E-04  1486   0.283E-02
  13 F= -.91156188E+03 E0= -.91156188E+03  d E =0.177952E-02  mag=     0.0000
       N       E                     dE             d eps       ncg     rms          rms(c)
DAV:   1    -0.890606473669E+03    0.90908E-02   -0.16129E+00  2400   0.113E+00    0.249E-01
RMM:   2    -0.890609350479E+03   -0.28768E-02   -0.34707E-02  2910   0.242E-01    0.173E-01
RMM:   3    -0.890609680243E+03   -0.32976E-03   -0.39972E-03  2296   0.541E-02    0.145E-01
RMM:   4    -0.890609834042E+03   -0.15380E-03   -0.69783E-04  1774   0.393E-02    0.781E-02
RMM:   5    -0.890609949632E+03   -0.11559E-03   -0.33529E-04  1581   0.288E-02    0.345E-02
RMM:   6    -0.890609962588E+03   -0.12956E-04   -0.98526E-05  1401   0.239E-02
  14 F= -.91155637E+03 E0= -.91155637E+03  d E =0.550760E-02  mag=     0.0000
       N       E                     dE             d eps       ncg     rms          rms(c)
DAV:   1    -0.890576320499E+03    0.33629E-01   -0.88683E+00  2368   0.269E+00    0.566E-01
RMM:   2    -0.890594036236E+03   -0.17716E-01   -0.20352E-01  2966   0.600E-01    0.373E-01
RMM:   3    -0.890595892740E+03   -0.18565E-02   -0.23527E-02  3210   0.130E-01    0.326E-01
RMM:   4    -0.890596163899E+03   -0.27116E-03   -0.47767E-03  3086   0.714E-02    0.194E-01
RMM:   5    -0.890596688058E+03   -0.52416E-03   -0.18331E-03  2381   0.434E-02    0.709E-02
RMM:   6    -0.890596735300E+03   -0.47241E-04   -0.50179E-04  1708   0.356E-02
  15 F= -.91154326E+03 E0= -.91154326E+03  d E =0.131114E-01  mag=     0.0000
       N       E                     dE             d eps       ncg     rms          rms(c)
DAV:   1    -0.890575295902E+03    0.21392E-01   -0.18282E+01  2368   0.385E+00    0.813E-01
RMM:   2    -0.890611184596E+03   -0.35889E-01   -0.41184E-01  2952   0.858E-01    0.560E-01
RMM:   3    -0.890614203753E+03   -0.30192E-02   -0.42681E-02  3076   0.186E-01    0.452E-01
RMM:   4    -0.890614814939E+03   -0.61119E-03   -0.10832E-02  2978   0.981E-02    0.261E-01
RMM:   5    -0.890615572127E+03   -0.75719E-03   -0.30377E-03  2399   0.525E-02    0.112E-01
RMM:   6    -0.890615634015E+03   -0.61888E-04   -0.97909E-04  2038   0.461E-02
  16 F= -.91156198E+03 E0= -.91156198E+03  d E =-.187182E-01  mag=    -0.0000
       N       E                     dE             d eps       ncg     rms          rms(c)
DAV:   1    -0.890609094710E+03    0.64774E-02   -0.10712E+00  2384   0.950E-01    0.196E-01
RMM:   2    -0.890611027301E+03   -0.19326E-02   -0.23780E-02  2908   0.210E-01    0.132E-01
RMM:   3    -0.890611163525E+03   -0.13622E-03   -0.22742E-03  2059   0.433E-02    0.115E-01
RMM:   4    -0.890611165154E+03   -0.16285E-05   -0.33342E-04  1437   0.338E-02
  17 F= -.91155750E+03 E0= -.91155750E+03  d E =0.447760E-02  mag=    -0.0000
       N       E                     dE             d eps       ncg     rms          rms(c)
DAV:   1    -0.890613448466E+03   -0.22849E-02   -0.86364E-01  2416   0.832E-01    0.169E-01
RMM:   2    -0.890615096903E+03   -0.16484E-02   -0.19115E-02  2804   0.183E-01    0.107E-01
RMM:   3    -0.890615242265E+03   -0.14536E-03   -0.20193E-03  1908   0.436E-02    0.871E-02
RMM:   4    -0.890615263036E+03   -0.20771E-04   -0.28422E-04  1540   0.337E-02
  18 F= -.91156153E+03 E0= -.91156153E+03  d E =-.403069E-02  mag=     0.0000
       N       E                     dE             d eps       ncg     rms          rms(c)
DAV:   1    -0.890614351184E+03    0.89108E-03   -0.45997E-02  2432   0.205E-01    0.412E-02
RMM:   2    -0.890614460458E+03   -0.10927E-03   -0.11265E-03  1664   0.519E-02    0.263E-02
RMM:   3    -0.890614471143E+03   -0.10685E-04   -0.12890E-04  1205   0.227E-02
  19 F= -.91156072E+03 E0= -.91156072E+03  d E =0.815936E-03  mag=    -0.0000
       N       E                     dE             d eps       ncg     rms          rms(c)
DAV:   1    -0.890615904777E+03   -0.14443E-02   -0.14888E-01  2432   0.335E-01    0.695E-02
RMM:   2    -0.890616138591E+03   -0.23381E-03   -0.28569E-03  1892   0.638E-02    0.417E-02
RMM:   3    -0.890616173799E+03   -0.35208E-04   -0.33117E-04  1277   0.256E-02
  20 F= -.91156238E+03 E0= -.91156238E+03  d E =-.165761E-02  mag=     0.0000
       N       E                     dE             d eps       ncg     rms          rms(c)
DAV:   1    -0.890618958197E+03   -0.28196E-02   -0.10090E+00  2352   0.863E-01    0.195E-01
RMM:   2    -0.890620524236E+03   -0.15660E-02   -0.19374E-02  2658   0.162E-01    0.135E-01
RMM:   3    -0.890620711712E+03   -0.18748E-03   -0.21118E-03  1728   0.434E-02    0.105E-01
RMM:   4    -0.890620838094E+03   -0.12638E-03   -0.39463E-04  1572   0.299E-02    0.483E-02
RMM:   5    -0.890620899457E+03   -0.61363E-04   -0.14305E-04  1442   0.218E-02
  21 F= -.91156682E+03 E0= -.91156682E+03  d E =-.444451E-02  mag=     0.0000
       N       E                     dE             d eps       ncg     rms          rms(c)
DAV:   1    -0.890608678184E+03    0.12160E-01   -0.25293E+00  2352   0.135E+00    0.289E-01
RMM:   2    -0.890612825116E+03   -0.41469E-02   -0.48855E-02  2648   0.252E-01    0.183E-01
RMM:   3    -0.890613185527E+03   -0.36041E-03   -0.47431E-03  1988   0.667E-02    0.150E-01
RMM:   4    -0.890613326462E+03   -0.14094E-03   -0.94845E-04  1446   0.363E-02    0.810E-02
RMM:   5    -0.890613488918E+03   -0.16246E-03   -0.43836E-04  1428   0.271E-02    0.290E-02
RMM:   6    -0.890613501472E+03   -0.12555E-04   -0.84506E-05  1211   0.205E-02
  22 F= -.91155985E+03 E0= -.91155985E+03  d E =0.697205E-02  mag=     0.0000
       N       E                     dE             d eps       ncg     rms          rms(c)
DAV:   1    -0.890611538538E+03    0.19504E-02   -0.13609E-01  2352   0.318E-01    0.721E-02
RMM:   2    -0.890611733040E+03   -0.19450E-03   -0.25891E-03  1864   0.623E-02    0.465E-02
RMM:   3    -0.890611770312E+03   -0.37271E-04   -0.30748E-04  1284   0.263E-02
  23 F= -.91155821E+03 E0= -.91155821E+03  d E =0.164035E-02  mag=    -0.0000
       N       E                     dE             d eps       ncg     rms          rms(c)
DAV:   1    -0.890614233525E+03   -0.25005E-02   -0.57007E-01  2352   0.641E-01    0.126E-01
RMM:   2    -0.890615136735E+03   -0.90321E-03   -0.10351E-02  2225   0.116E-01    0.745E-02
RMM:   3    -0.890615226497E+03   -0.89763E-04   -0.10321E-03  1423   0.377E-02    0.594E-02
RMM:   4    -0.890615267801E+03   -0.41303E-04   -0.22861E-04  1238   0.233E-02
  24 F= -.91156150E+03 E0= -.91156150E+03  d E =-.329242E-02  mag=     0.0000
       N       E                     dE             d eps       ncg     rms          rms(c)
DAV:   1    -0.890616454207E+03   -0.12277E-02   -0.48091E+00  2400   0.184E+00    0.398E-01
RMM:   2    -0.890624393601E+03   -0.79394E-02   -0.92648E-02  2760   0.334E-01    0.259E-01
RMM:   3    -0.890625129179E+03   -0.73558E-03   -0.85642E-03  2318   0.810E-02    0.204E-01
RMM:   4    -0.890625453148E+03   -0.32397E-03   -0.15694E-03  1936   0.472E-02    0.940E-02
RMM:   5    -0.890625678181E+03   -0.22503E-03   -0.51309E-04  1634   0.302E-02    0.415E-02
RMM:   6    -0.890625691410E+03   -0.13229E-04   -0.13810E-04  1434   0.237E-02
  25 F= -.91157129E+03 E0= -.91157129E+03  d E =-.978625E-02  mag=    -0.0000
       N       E                     dE             d eps       ncg     rms          rms(c)
DAV:   1    -0.890586270638E+03    0.39408E-01   -0.11988E+01  2368   0.291E+00    0.629E-01
RMM:   2    -0.890607008769E+03   -0.20738E-01   -0.23750E-01  2816   0.522E-01    0.393E-01
RMM:   3    -0.890608563864E+03   -0.15551E-02   -0.21543E-02  2495   0.131E-01    0.327E-01
RMM:   4    -0.890608852730E+03   -0.28887E-03   -0.41298E-03  2094   0.603E-02    0.176E-01
RMM:   5    -0.890609417101E+03   -0.56437E-03   -0.16718E-03  1995   0.428E-02    0.577E-02
RMM:   6    -0.890609453501E+03   -0.36400E-04   -0.28260E-04  1478   0.269E-02
  26 F= -.91155605E+03 E0= -.91155605E+03  d E =0.152363E-01  mag=    -0.0000
       N       E                     dE             d eps       ncg     rms          rms(c)
DAV:   1    -0.890612029351E+03   -0.26122E-02   -0.58535E-01  2368   0.650E-01    0.132E-01
RMM:   2    -0.890612850810E+03   -0.82146E-03   -0.10127E-02  2352   0.118E-01    0.887E-02
RMM:   3    -0.890612900226E+03   -0.49416E-04   -0.99518E-04  1468   0.373E-02
  27 F= -.91155928E+03 E0= -.91155928E+03  d E =-.322899E-02  mag=     0.0000
       N       E                     dE             d eps       ncg     rms          rms(c)
DAV:   1    -0.890613290767E+03   -0.43996E-03   -0.72136E-03  2960   0.893E-02    0.450E-02
RMM:   2    -0.890613297373E+03   -0.66057E-05   -0.19461E-04  1392   0.251E-02
  28 F= -.91155966E+03 E0= -.91155966E+03  d E =-.385088E-03  mag=    -0.0000
       N       E                     dE             d eps       ncg     rms          rms(c)
DAV:   1    -0.890605723609E+03    0.75672E-02   -0.12580E+01  2384   0.301E+00    0.661E-01
RMM:   2    -0.890626878918E+03   -0.21155E-01   -0.24441E-01  2803   0.565E-01    0.438E-01
RMM:   3    -0.890628832816E+03   -0.19539E-02   -0.25368E-02  2624   0.148E-01    0.336E-01
RMM:   4    -0.890629693023E+03   -0.86021E-03   -0.59503E-03  2247   0.663E-02    0.162E-01
RMM:   5    -0.890630230300E+03   -0.53728E-03   -0.15571E-03  1936   0.413E-02    0.600E-02
RMM:   6    -0.890630257768E+03   -0.27467E-04   -0.34943E-04  1532   0.278E-02
  29 F= -.91157557E+03 E0= -.91157557E+03  d E =-.159061E-01  mag=    -0.0000
       N       E                     dE             d eps       ncg     rms          rms(c)
DAV:   1    -0.890577712581E+03    0.52518E-01   -0.17280E+01  2384   0.352E+00    0.750E-01
RMM:   2    -0.890606953270E+03   -0.29241E-01   -0.33434E-01  2804   0.646E-01    0.472E-01
RMM:   3    -0.890609141767E+03   -0.21885E-02   -0.31763E-02  2632   0.171E-01    0.382E-01
RMM:   4    -0.890609739247E+03   -0.59748E-03   -0.77935E-03  2158   0.664E-02    0.215E-01
RMM:   5    -0.890610549984E+03   -0.81074E-03   -0.31391E-03  2124   0.516E-02    0.707E-02
RMM:   6    -0.890610547688E+03    0.22965E-05   -0.42890E-04  1462   0.296E-02
  30 F= -.91155706E+03 E0= -.91155706E+03  d E =0.185155E-01  mag=     0.0000
