 vasp.5.3.5 31Mar14 (build May 27 2014 14:39:49) gamma-only                     
  
 executed on           LinuxIFORT date 2020.11.28  11:33:06
 running on   48 total cores
 distrk:  each k-point on   48 cores,    1 groups
 distr:  one band on NCORES_PER_BAND=   6 cores,    8 groups


--------------------------------------------------------------------------------------------------------


 INCAR:
 POTCAR:    PAW_PBE Ce 23Dec2003                  
 POTCAR:    PAW_PBE O 08Apr2002                   
 POTCAR:    PAW_PBE Pt 04Feb2005                  
 POTCAR:    PAW_PBE O 08Apr2002                   
 POTCAR:    PAW_PBE C 08Apr2002                   
 POTCAR:    PAW_PBE Ce 23Dec2003                  
   VRHFIN =Ce : [core= Kr 4d10]                                                 
   LEXCH  = PE                                                                  
   EATOM  =  1063.0861 eV,   78.1346 Ry                                         
                                                                                
   TITEL  = PAW_PBE Ce 23Dec2003                                                
   LULTRA =        F    use ultrasoft PP ?                                      
   IUNSCR =        1    unscreen: 0-lin 1-nonlin 2-no                           
   RPACOR =    1.800    partial core radius                                     
   POMASS =  140.115; ZVAL   =   12.000    mass and valenz                      
   RCORE  =    2.700    outmost cutoff radius                                   
   RWIGS  =    2.500; RWIGS  =    1.323    wigner-seitz radius (au A)           
   ENMAX  =  273.042; ENMIN  =  204.781 eV                                      
   RCLOC  =    1.810    cutoff for local pot                                    
   LCOR   =        T    correct aug charges                                     
   LPAW   =        T    paw PP                                                  
   EAUG   =  580.196                                                            
   DEXC   =    0.000                                                            
   RMAX   =    2.749    core radius for proj-oper                               
   RAUG   =    1.300    factor for augmentation sphere                          
   RDEP   =    2.810    radius for radial grids                                 
   RDEPT  =    2.162    core radius for aug-charge                              
                                                                                
   Atomic configuration                                                         
   14 entries                                                                   
     n  l   j            E        occ.                                          
     1  0  0.50    -40258.9816   2.0000                                         
     2  0  0.50     -6445.4884   2.0000                                         
     2  1  1.50     -5771.7470   6.0000                                         
     3  0  0.50     -1387.9739   2.0000                                         
     3  1  1.50     -1173.8158   6.0000                                         
     3  2  2.50      -869.9108  10.0000                                         
     4  0  0.50      -280.8706   2.0000                                         
     4  1  1.50      -210.9815   6.0000                                         
     4  2  2.50      -110.4558  10.0000                                         
     5  0  0.50       -40.5819   2.0000                                         
     6  0  0.50        -3.7444   2.0000                                         
     5  1  1.50       -23.2188   6.0000                                         
     5  2  2.50        -3.0598   1.0000                                         
     4  3  2.50        -5.3970   1.0000                                         
   Description                                                                  
     l       E           TYP  RCUT    TYP  RCUT                                 
     0    -40.5819164     23  1.500                                             
     0     -3.7443793     23  2.300                                             
     1    -23.2188445     23  2.000                                             
     1     40.8174780     23  2.300                                             
     2     -3.0597556     23  2.500                                             
     2     13.6058260     23  2.500                                             
     3     -5.3970469     23  2.700                                             
     3     -5.8505052     23  2.700                                             
  local pseudopotential read in
  partial core-charges read in
  partial kinetic energy density read in
  atomic valenz-charges read in
  non local Contribution for L=           0  read in
    real space projection operators read in
  non local Contribution for L=           0  read in
    real space projection operators read in
  non local Contribution for L=           1  read in
    real space projection operators read in
  non local Contribution for L=           1  read in
    real space projection operators read in
  non local Contribution for L=           2  read in
    real space projection operators read in
  non local Contribution for L=           2  read in
    real space projection operators read in
  non local Contribution for L=           3  read in
    real space projection operators read in
  non local Contribution for L=           3  read in
    real space projection operators read in
    PAW grid and wavefunctions read in
 
   number of l-projection  operators is LMAX  =           8
   number of lm-projection operators is LMMAX =          32
 
 POTCAR:    PAW_PBE O 08Apr2002                   
   VRHFIN =O: s2p4                                                              
   LEXCH  = PE                                                                  
   EATOM  =   432.3788 eV,   31.7789 Ry                                         
                                                                                
   TITEL  = PAW_PBE O 08Apr2002                                                 
   LULTRA =        F    use ultrasoft PP ?                                      
   IUNSCR =        1    unscreen: 0-lin 1-nonlin 2-no                           
   RPACOR =    1.200    partial core radius                                     
   POMASS =   16.000; ZVAL   =    6.000    mass and valenz                      
   RCORE  =    1.520    outmost cutoff radius                                   
   RWIGS  =    1.550; RWIGS  =    0.820    wigner-seitz radius (au A)           
   ENMAX  =  400.000; ENMIN  =  300.000 eV                                      
   ICORE  =        2    local potential                                         
   LCOR   =        T    correct aug charges                                     
   LPAW   =        T    paw PP                                                  
   EAUG   =  605.392                                                            
   DEXC   =    0.000                                                            
   RMAX   =    1.553    core radius for proj-oper                               
   RAUG   =    1.300    factor for augmentation sphere                          
   RDEP   =    1.550    radius for radial grids                                 
   RDEPT  =    1.329    core radius for aug-charge                              
                                                                                
   Atomic configuration                                                         
    4 entries                                                                   
     n  l   j            E        occ.                                          
     1  0  0.50      -514.6923   2.0000                                         
     2  0  0.50       -23.9615   2.0000                                         
     2  1  0.50        -9.0305   4.0000                                         
     3  2  1.50        -9.5241   0.0000                                         
   Description                                                                  
     l       E           TYP  RCUT    TYP  RCUT                                 
     0    -23.9615318     23  1.200                                             
     0     -9.5240782     23  1.200                                             
     1     -9.0304911     23  1.520                                             
     1      8.1634956     23  1.520                                             
     2     -9.5240782      7  1.500                                             
  local pseudopotential read in
  partial core-charges read in
  partial kinetic energy density read in
  kinetic energy density of atom read in
  atomic valenz-charges read in
  non local Contribution for L=           0  read in
    real space projection operators read in
  non local Contribution for L=           0  read in
    real space projection operators read in
  non local Contribution for L=           1  read in
    real space projection operators read in
  non local Contribution for L=           1  read in
    real space projection operators read in
    PAW grid and wavefunctions read in
 
   number of l-projection  operators is LMAX  =           4
   number of lm-projection operators is LMMAX =           8
 
 POTCAR:    PAW_PBE Pt 04Feb2005                  
   VRHFIN =Pt: s1d9                                                             
   LEXCH  = PE                                                                  
   EATOM  =   729.1176 eV,   53.5886 Ry                                         
                                                                                
   TITEL  = PAW_PBE Pt 04Feb2005                                                
   LULTRA =        F    use ultrasoft PP ?                                      
   IUNSCR =        1    unscreen: 0-lin 1-nonlin 2-no                           
   RPACOR =    2.330    partial core radius                                     
   POMASS =  195.080; ZVAL   =   10.000    mass and valenz                      
   RCORE  =    2.600    outmost cutoff radius                                   
   RWIGS  =    2.750; RWIGS  =    1.455    wigner-seitz radius (au A)           
   ENMAX  =  230.283; ENMIN  =  172.712 eV                                      
   ICORE  =        3    local potential                                         
   LCOR   =        T    correct aug charges                                     
   LPAW   =        T    paw PP                                                  
   EAUG   =  358.966                                                            
   DEXC   =    0.000                                                            
   RMAX   =    2.658    core radius for proj-oper                               
   RAUG   =    1.300    factor for augmentation sphere                          
   RDEP   =    2.761    radius for radial grids                                 
   RDEPT  =    2.203    core radius for aug-charge                              
                                                                                
   Atomic configuration                                                         
   16 entries                                                                   
     n  l   j            E        occ.                                          
     1  0  0.50    -78401.1885   2.0000                                         
     2  0  0.50    -13770.7750   2.0000                                         
     2  1  1.50    -11931.0468   6.0000                                         
     3  0  0.50     -3234.7234   2.0000                                         
     3  1  1.50     -2699.2216   6.0000                                         
     3  2  2.50     -2119.5714  10.0000                                         
     4  0  0.50      -695.1528   2.0000                                         
     4  1  1.50      -519.6034   6.0000                                         
     4  2  2.50      -306.6786  10.0000                                         
     4  3  3.50       -70.1041  14.0000                                         
     5  0  0.50      -101.7747   2.0000                                         
     5  1  1.50       -55.9873   6.0000                                         
     5  2  2.50        -6.1423   9.0000                                         
     6  0  0.50        -5.6573   1.0000                                         
     6  1  1.50        -6.8029   0.0000                                         
     5  3  2.50        -1.3606   0.0000                                         
   Description                                                                  
     l       E           TYP  RCUT    TYP  RCUT                                 
     2     -6.1423404     23  2.500                                             
     2     -7.5029230     23  2.500                                             
     0     -5.6573207     23  2.500                                             
     0      0.7416693     23  2.500                                             
     1     -2.7211652     23  2.600                                             
     1     20.4087390     23  2.600                                             
     3     -1.3605826     23  2.500                                             
  local pseudopotential read in
  partial core-charges read in
  partial kinetic energy density read in
  atomic valenz-charges read in
  non local Contribution for L=           2  read in
    real space projection operators read in
  non local Contribution for L=           2  read in
    real space projection operators read in
  non local Contribution for L=           0  read in
    real space projection operators read in
  non local Contribution for L=           0  read in
    real space projection operators read in
  non local Contribution for L=           1  read in
    real space projection operators read in
  non local Contribution for L=           1  read in
    real space projection operators read in
    PAW grid and wavefunctions read in
 
   number of l-projection  operators is LMAX  =           6
   number of lm-projection operators is LMMAX =          18
 
 POTCAR:    PAW_PBE O 08Apr2002                   
   VRHFIN =O: s2p4                                                              
   LEXCH  = PE                                                                  
   EATOM  =   432.3788 eV,   31.7789 Ry                                         
                                                                                
   TITEL  = PAW_PBE O 08Apr2002                                                 
   LULTRA =        F    use ultrasoft PP ?                                      
   IUNSCR =        1    unscreen: 0-lin 1-nonlin 2-no                           
   RPACOR =    1.200    partial core radius                                     
   POMASS =   16.000; ZVAL   =    6.000    mass and valenz                      
   RCORE  =    1.520    outmost cutoff radius                                   
   RWIGS  =    1.550; RWIGS  =    0.820    wigner-seitz radius (au A)           
   ENMAX  =  400.000; ENMIN  =  300.000 eV                                      
   ICORE  =        2    local potential                                         
   LCOR   =        T    correct aug charges                                     
   LPAW   =        T    paw PP                                                  
   EAUG   =  605.392                                                            
   DEXC   =    0.000                                                            
   RMAX   =    1.553    core radius for proj-oper                               
   RAUG   =    1.300    factor for augmentation sphere                          
   RDEP   =    1.550    radius for radial grids                                 
   RDEPT  =    1.329    core radius for aug-charge                              
                                                                                
   Atomic configuration                                                         
    4 entries                                                                   
     n  l   j            E        occ.                                          
     1  0  0.50      -514.6923   2.0000                                         
     2  0  0.50       -23.9615   2.0000                                         
     2  1  0.50        -9.0305   4.0000                                         
     3  2  1.50        -9.5241   0.0000                                         
   Description                                                                  
     l       E           TYP  RCUT    TYP  RCUT                                 
     0    -23.9615318     23  1.200                                             
     0     -9.5240782     23  1.200                                             
     1     -9.0304911     23  1.520                                             
     1      8.1634956     23  1.520                                             
     2     -9.5240782      7  1.500                                             
  local pseudopotential read in
  partial core-charges read in
  partial kinetic energy density read in
  kinetic energy density of atom read in
  atomic valenz-charges read in
  non local Contribution for L=           0  read in
    real space projection operators read in
  non local Contribution for L=           0  read in
    real space projection operators read in
  non local Contribution for L=           1  read in
    real space projection operators read in
  non local Contribution for L=           1  read in
    real space projection operators read in
    PAW grid and wavefunctions read in
 
   number of l-projection  operators is LMAX  =           4
   number of lm-projection operators is LMMAX =           8
 
 POTCAR:    PAW_PBE C 08Apr2002                   
   VRHFIN =C: s2p2                                                              
   LEXCH  = PE                                                                  
   EATOM  =   147.1560 eV,   10.8157 Ry                                         
                                                                                
   TITEL  = PAW_PBE C 08Apr2002                                                 
   LULTRA =        F    use ultrasoft PP ?                                      
   IUNSCR =        1    unscreen: 0-lin 1-nonlin 2-no                           
   RPACOR =    1.200    partial core radius                                     
   POMASS =   12.011; ZVAL   =    4.000    mass and valenz                      
   RCORE  =    1.500    outmost cutoff radius                                   
   RWIGS  =    1.630; RWIGS  =    0.863    wigner-seitz radius (au A)           
   ENMAX  =  400.000; ENMIN  =  300.000 eV                                      
   ICORE  =        2    local potential                                         
   LCOR   =        T    correct aug charges                                     
   LPAW   =        T    paw PP                                                  
   EAUG   =  644.873                                                            
   DEXC   =    0.000                                                            
   RMAX   =    1.529    core radius for proj-oper                               
   RAUG   =    1.300    factor for augmentation sphere                          
   RDEP   =    1.501    radius for radial grids                                 
   RDEPT  =    1.300    core radius for aug-charge                              
                                                                                
   Atomic configuration                                                         
    4 entries                                                                   
     n  l   j            E        occ.                                          
     1  0  0.50      -273.3789   2.0000                                         
     2  0  0.50       -13.7508   2.0000                                         
     2  1  0.50        -5.2854   2.0000                                         
     3  2  1.50        -5.4423   0.0000                                         
   Description                                                                  
     l       E           TYP  RCUT    TYP  RCUT                                 
     0    -13.7508458     23  1.200                                             
     0     -8.2022199     23  1.200                                             
     1     -5.2854383     23  1.500                                             
     1     34.0145650     23  1.500                                             
     2     -5.4423304      7  1.500                                             
  local pseudopotential read in
  partial core-charges read in
  partial kinetic energy density read in
  atomic valenz-charges read in
  non local Contribution for L=           0  read in
    real space projection operators read in
  non local Contribution for L=           0  read in
    real space projection operators read in
  non local Contribution for L=           1  read in
    real space projection operators read in
  non local Contribution for L=           1  read in
    real space projection operators read in
    PAW grid and wavefunctions read in
 
   number of l-projection  operators is LMAX  =           4
   number of lm-projection operators is LMMAX =           8
 
 Optimization of the real space projectors (new method)

 maximal supplied QI-value         = 13.98
 optimisation between [QCUT,QGAM] = [ 10.21, 20.42] = [ 29.18,116.73] Ry 
 Optimized for a Real-space Cutoff    1.65 Angstroem

   l    n(q)    QCUT    max X(q) W(low)/X(q) W(high)/X(q)  e(spline) 
   0     10    10.208     8.553    0.18E-04    0.75E-05    0.12E-06
   0     10    10.208     8.106    0.26E-04    0.16E-04    0.24E-06
   1     10    10.208     4.160    0.93E-05    0.96E-06    0.75E-07
   1     10    10.208     3.597    0.23E-04    0.26E-04    0.15E-06
   2      9    10.208     8.183    0.11E-03    0.28E-03    0.51E-06
   2      9    10.208     6.077    0.74E-04    0.19E-03    0.37E-06
   3      9    10.208   116.013    0.19E-03    0.98E-05    0.18E-06
   3      9    10.208   108.937    0.19E-03    0.10E-04    0.18E-06
 Optimization of the real space projectors (new method)

 maximal supplied QI-value         = 24.76
 optimisation between [QCUT,QGAM] = [ 10.15, 20.30] = [ 28.85,115.39] Ry 
 Optimized for a Real-space Cutoff    1.51 Angstroem

   l    n(q)    QCUT    max X(q) W(low)/X(q) W(high)/X(q)  e(spline) 
   0      9    10.150    20.381    0.17E-03    0.18E-03    0.41E-06
   0      9    10.150    15.268    0.18E-03    0.20E-03    0.43E-06
   1      9    10.150     5.964    0.16E-03    0.20E-03    0.36E-06
   1      9    10.150     5.382    0.13E-03    0.16E-03    0.33E-06
 Optimization of the real space projectors (new method)

 maximal supplied QI-value         = 14.36
 optimisation between [QCUT,QGAM] = [ 10.20, 20.39] = [ 29.12,116.47] Ry 
 Optimized for a Real-space Cutoff    1.55 Angstroem

   l    n(q)    QCUT    max X(q) W(low)/X(q) W(high)/X(q)  e(spline) 
   2      9    10.197    66.195    0.14E-03    0.26E-03    0.16E-06
   2      9    10.197    64.643    0.14E-03    0.26E-03    0.16E-06
   0      9    10.197    95.520    0.52E-04    0.23E-04    0.61E-07
   0      9    10.197    63.403    0.50E-04    0.22E-04    0.58E-07
   1      9    10.197    19.961    0.18E-03    0.80E-04    0.90E-07
   1      9    10.197    13.289    0.15E-03    0.68E-04    0.78E-07
 Optimization of the real space projectors (new method)

 maximal supplied QI-value         = 24.76
 optimisation between [QCUT,QGAM] = [ 10.15, 20.30] = [ 28.85,115.39] Ry 
 Optimized for a Real-space Cutoff    1.51 Angstroem

   l    n(q)    QCUT    max X(q) W(low)/X(q) W(high)/X(q)  e(spline) 
   0      9    10.150    20.381    0.17E-03    0.18E-03    0.41E-06
   0      9    10.150    15.268    0.18E-03    0.20E-03    0.43E-06
   1      9    10.150     5.964    0.16E-03    0.20E-03    0.36E-06
   1      9    10.150     5.382    0.13E-03    0.16E-03    0.33E-06
 Optimization of the real space projectors (new method)

 maximal supplied QI-value         = 25.13
 optimisation between [QCUT,QGAM] = [ 10.05, 20.36] = [ 28.30,116.06] Ry 
 Optimized for a Real-space Cutoff    1.51 Angstroem

   l    n(q)    QCUT    max X(q) W(low)/X(q) W(high)/X(q)  e(spline) 
   0      9    10.053   115.676    0.19E-03    0.21E-03    0.38E-06
   0      9    10.053    87.132    0.19E-03    0.21E-03    0.38E-06
   1      9    10.053     4.429    0.87E-04    0.11E-03    0.39E-06
   1      9    10.053     2.733    0.59E-04    0.62E-04    0.43E-06
  PAW_PBE Ce 23Dec2003                  :
 energy of atom  1       EATOM=-1063.0861
 kinetic energy error for atom=    0.0451 (will be added to EATOM!!)
  PAW_PBE O 08Apr2002                   :
 energy of atom  2       EATOM= -432.3788
 kinetic energy error for atom=    0.1156 (will be added to EATOM!!)
  PAW_PBE Pt 04Feb2005                  :
 energy of atom  3       EATOM= -729.1176
 kinetic energy error for atom=    0.0056 (will be added to EATOM!!)
  PAW_PBE O 08Apr2002                   :
 energy of atom  4       EATOM= -432.3788
 kinetic energy error for atom=    0.1156 (will be added to EATOM!!)
  PAW_PBE C 08Apr2002                   :
 energy of atom  5       EATOM= -147.1560
 kinetic energy error for atom=    0.0288 (will be added to EATOM!!)
 
 
 POSCAR: CeO2-110-l3-p23:                        
  positions in direct lattice
  velocities in cartesian coordinates
 exchange correlation table for  LEXCH =        8
   RHO(1)=    0.500       N(1)  =     2000
   RHO(2)=  100.500       N(2)  =     4000

 VTST: version 3.1, (03/28/14)

 CHAIN: initializing optimizer
 
 OPT: Using VASP QUASI-newton optimizer
 CHAIN: Read ICHAIN            0
 
 POSCAR: CeO2-110-l3-p23:                        
  positions in direct lattice
  velocities in cartesian coordinates
 


--------------------------------------------------------------------------------------------------------


 ion  position               nearest neighbor table
   1  0.771  0.167  0.000-  37 2.38  41 2.38  40 2.38  45 2.38  53 2.38  55 2.38
   2  0.771  0.500  0.000-  37 2.38  39 2.38  41 2.38  47 2.38  59 2.38  60 2.38
   3  0.271  0.167  0.000-  42 2.38  46 2.38  44 2.38  38 2.38  51 2.38  52 2.38
   4  0.771  0.833  0.000-  39 2.38  47 2.38  45 2.38  40 2.38  50 2.38  54 2.38
   5  0.271  0.500  0.000-  42 2.38  43 2.38  46 2.38  48 2.38  57 2.38  58 2.38
   6  0.271  0.833  0.000-  43 2.38  48 2.38  44 2.38  38 2.38  49 2.38  56 2.38
   7  0.521  0.000  0.079-  67 2.36  61 2.37  51 2.38  55 2.38  49 2.38  50 2.38  44 2.38  45 2.38

   8  0.521  0.667  0.079-  62 2.37  63 2.38  49 2.38  50 2.38  57 2.38  60 2.38  39 2.38  43 2.38

   9  0.021  0.000  0.079-  65 2.37  53 2.38  54 2.38  56 2.38  52 2.38  40 2.38  38 2.38  66 2.38

  10  0.521  0.333  0.079-  69 2.36  71 2.37  51 2.38  55 2.38  57 2.38  60 2.38  37 2.38  46 2.38

  11  0.021  0.333  0.079-  70 2.37  53 2.38  52 2.38  59 2.38  58 2.38  42 2.38  41 2.38  72 2.39

  12  0.021  0.667  0.079-  68 2.38  56 2.38  54 2.38  59 2.38  58 2.38  48 2.38  47 2.38  64 2.38

  13  0.772  0.167  0.157-  73 2.35  80 2.36  70 2.37  61 2.37  71 2.37  53 2.38  66 2.38  55 2.39

  14  0.771  0.833  0.158-  74 2.34  64 2.37  63 2.37  61 2.38  66 2.38  54 2.39  84 2.39  50 2.39

  15  0.271  0.166  0.157-  79 2.31  65 2.37  72 2.38  51 2.38  52 2.38  67 2.39  69 2.39  83 2.39

  16  0.772  0.500  0.158-  78 2.36  76 2.36  63 2.37  71 2.38  70 2.38  64 2.38  59 2.39  60 2.39

  17  0.271  0.500  0.158-  81 2.35  69 2.37  62 2.37  68 2.37  57 2.38  72 2.39  82 2.39  58 2.39

  18  0.271  0.832  0.157-  77 2.36  67 2.37  49 2.37  62 2.37  56 2.37  68 2.37  75 2.38  65 2.38

  19  0.021  0.666  0.235-  64 2.35  82 2.36  68 2.36  84 2.36  76 2.37  77 2.39  92 2.40  87 2.43

  20  0.523  0.665  0.234-  63 2.35  78 2.36  62 2.37  90 2.37  81 2.38  74 2.38  75 2.38  93 2.40

  21  0.021  0.333  0.234-  72 2.33  70 2.34  80 2.36  76 2.37  95 2.38  94 2.39  82 2.40  83 2.42

  22  0.021  0.999  0.234-  66 2.34  83 2.35  65 2.35  84 2.37  77 2.38  80 2.38  86 2.39  96 2.45

  23  0.523  0.000  0.233-  61 2.33  67 2.34  91 2.35  73 2.37  79 2.37  74 2.38  89 2.39  75 2.40

  24  0.521  0.332  0.233-  71 2.34  69 2.34  88 2.35  79 2.37  81 2.38  73 2.38  85 2.39  78 2.39

  25  0.768  0.500  0.318- 106 2.29  90 2.36 105 2.36  92 2.37  85 2.37  94 2.40  78 2.44  76 2.48

  26  0.770  0.167  0.316- 104 2.31  86 2.36 103 2.36  85 2.37  89 2.37  94 2.38  73 2.42  80 2.43

  27  0.272  0.498  0.316- 109 2.22 107 2.34  93 2.38  95 2.39  82 2.41  88 2.41  81 2.43  87 2.47

  28  0.278  0.833  0.313-  99 2.25  75 2.33  93 2.34  96 2.35  87 2.37  91 2.38  77 2.40
  29  0.272  0.165  0.316- 100 2.30  88 2.33  91 2.34 101 2.36  95 2.39  83 2.40  96 2.45  79 2.48

  30  0.771  0.832  0.318-  97 2.29 102 2.35  90 2.36  89 2.38  92 2.40  86 2.42  84 2.44  74 2.46

  31  0.018  0.006  0.386-  96 2.23  86 2.23 103 2.27 101 2.27 102 2.31
  32  0.522  0.001  0.383-  89 2.24  99 2.24  91 2.29 104 2.32 100 2.32  97 2.35
  33  0.019  0.658  0.387-  87 2.24  92 2.24 105 2.28 107 2.28 102 2.36  98 2.50
  34  0.518  0.665  0.388- 110 2.21  93 2.29  90 2.34 106 2.35  97 2.39  99 2.46 109 2.48
  35  0.020  0.333  0.385-  94 2.23  95 2.25 107 2.31 105 2.33 103 2.34 101 2.35
  36  0.520  0.331  0.384- 109 2.20  85 2.25  88 2.28 104 2.34 100 2.35 106 2.35
  37  0.646  0.333  0.000-   1 2.38   2 2.38  10 2.38
  38  0.146  0.000  0.000-   3 2.38   6 2.38   9 2.38
  39  0.646  0.667  0.000-   4 2.38   2 2.38   8 2.38
  40  0.896  0.000  0.000-   1 2.38   4 2.38   9 2.38
  41  0.896  0.333  0.000-   1 2.38   2 2.38  11 2.38
  42  0.146  0.333  0.000-   3 2.38   5 2.38  11 2.38
  43  0.396  0.667  0.000-   6 2.38   5 2.38   8 2.38
  44  0.396  0.000  0.000-   3 2.38   6 2.38   7 2.38
  45  0.646  0.000  0.000-   1 2.38   4 2.38   7 2.38
  46  0.396  0.333  0.000-   3 2.38   5 2.38  10 2.38
  47  0.896  0.667  0.000-   4 2.38   2 2.38  12 2.38
  48  0.146  0.667  0.000-   6 2.38   5 2.38  12 2.38
  49  0.396  0.833  0.079-  18 2.37   8 2.38   7 2.38   6 2.38
  50  0.646  0.833  0.079-   8 2.38   7 2.38   4 2.38  14 2.39
  51  0.396  0.167  0.079-  10 2.38   7 2.38   3 2.38  15 2.38
  52  0.146  0.167  0.079-  11 2.38   9 2.38   3 2.38  15 2.38
  53  0.896  0.167  0.079-  13 2.38  11 2.38   9 2.38   1 2.38
  54  0.896  0.833  0.079-  12 2.38   9 2.38   4 2.38  14 2.39
  55  0.646  0.167  0.079-  10 2.38   7 2.38   1 2.38  13 2.39
  56  0.146  0.833  0.079-  18 2.37  12 2.38   9 2.38   6 2.38
  57  0.396  0.500  0.079-   8 2.38  10 2.38   5 2.38  17 2.38
  58  0.146  0.500  0.079-  11 2.38  12 2.38   5 2.38  17 2.39
  59  0.896  0.500  0.079-  11 2.38  12 2.38   2 2.38  16 2.39
  60  0.646  0.500  0.079-   8 2.38  10 2.38   2 2.38  16 2.39
  61  0.647  1.000  0.156-  23 2.33   7 2.37  13 2.37  14 2.38
  62  0.396  0.666  0.157-  20 2.37  17 2.37   8 2.37  18 2.37
  63  0.647  0.666  0.157-  20 2.35  16 2.37  14 2.37   8 2.38
  64  0.897  0.667  0.157-  19 2.35  14 2.37  12 2.38  16 2.38
  65  0.146  1.000  0.157-  22 2.35   9 2.37  15 2.37  18 2.38
  66  0.897  0.999  0.157-  22 2.34  14 2.38   9 2.38  13 2.38
  67  0.396  0.998  0.156-  23 2.34   7 2.36  18 2.37  15 2.39
  68  0.146  0.666  0.157-  19 2.36  17 2.37  18 2.37  12 2.38
  69  0.395  0.334  0.156-  24 2.34  10 2.36  17 2.37  15 2.39
  70  0.896  0.333  0.157-  21 2.34  11 2.37  13 2.37  16 2.38
  71  0.647  0.333  0.156-  24 2.34  10 2.37  13 2.37  16 2.38
  72  0.146  0.333  0.158-  21 2.33  15 2.38  17 2.39  11 2.39
  73  0.647  0.166  0.235-  13 2.35  23 2.37  24 2.38  26 2.42
  74  0.647  0.833  0.235-  14 2.34  20 2.38  23 2.38  30 2.46
  75  0.397  0.832  0.235-  28 2.33  18 2.38  20 2.38  23 2.40
  76  0.897  0.499  0.235-  16 2.36  21 2.37  19 2.37  25 2.48
  77  0.148  0.833  0.235-  18 2.36  22 2.38  19 2.39  28 2.40
  78  0.646  0.500  0.235-  20 2.36  16 2.36  24 2.39  25 2.44
  79  0.397  0.166  0.232-  15 2.31  24 2.37  23 2.37  29 2.48
  80  0.897  0.167  0.235-  13 2.36  21 2.36  22 2.38  26 2.43
  81  0.396  0.500  0.235-  17 2.35  20 2.38  24 2.38  27 2.43
  82  0.146  0.502  0.236-  19 2.36  17 2.39  21 2.40  27 2.41
  83  0.146  0.163  0.237-  22 2.35  15 2.39  29 2.40  21 2.42
  84  0.897  0.832  0.237-  19 2.36  22 2.37  14 2.39  30 2.44
  85  0.646  0.332  0.312-  36 2.25  26 2.37  25 2.37  24 2.39
  86  0.897  0.003  0.313-  31 2.23  26 2.36  22 2.39  30 2.42
  87  0.145  0.673  0.316-  33 2.24  28 2.37  19 2.43  27 2.47
  88  0.395  0.326  0.310-  36 2.28  29 2.33  24 2.35  27 2.41
  89  0.648  0.999  0.312-  32 2.24  26 2.37  30 2.38  23 2.39
  90  0.647  0.667  0.313-  34 2.34  25 2.36  30 2.36  20 2.37
  91  0.397  0.003  0.309-  32 2.29  29 2.34  23 2.35  28 2.38
  92  0.896  0.663  0.314-  33 2.24  25 2.37  19 2.40  30 2.40
  93  0.396  0.665  0.313-  34 2.29  28 2.34  27 2.38  20 2.40
  94  0.896  0.333  0.313-  35 2.23  26 2.38  21 2.39  25 2.40
  95  0.145  0.331  0.313-  35 2.25  21 2.38  29 2.39  27 2.39
  96  0.145  0.991  0.316-  31 2.23  28 2.35  22 2.45  29 2.45
  97  0.641  0.834  0.391-  30 2.29  32 2.35  34 2.39
  98  0.152  0.826  0.407- 108 1.94  33 2.50
  99  0.402  0.846  0.385-  32 2.24  28 2.25  34 2.46
 100  0.401  0.164  0.390-  29 2.30  32 2.32  36 2.35
 101  0.137  0.165  0.391-  31 2.27  35 2.35  29 2.36
 102  0.914  0.834  0.389-  31 2.31  30 2.35  33 2.36
 103  0.901  0.166  0.392-  31 2.27  35 2.34  26 2.36
 104  0.640  0.165  0.389-  26 2.31  32 2.32  36 2.34
 105  0.901  0.498  0.393-  33 2.28  35 2.33  25 2.36
 106  0.639  0.498  0.390-  25 2.29  34 2.35  36 2.35
 107  0.137  0.497  0.389-  33 2.28  35 2.31  27 2.34
 108  0.250  0.769  0.467- 112 1.83  98 1.94 110 1.95
 109  0.401  0.483  0.385-  36 2.20  27 2.22  34 2.48
 110  0.378  0.656  0.452- 108 1.95  34 2.21
 111  0.330  0.705  0.579- 112 1.16
 112  0.297  0.733  0.536- 111 1.16 108 1.83
 

IMPORTANT INFORMATION: All symmetrisations will be switched off!
NOSYMM: (Re-)initialisation of all symmetry stuff for point group C_1.

 
 
 KPOINTS: CeO2-111-3x3-9layers         ! Comment  

Automatic generation of k-mesh.
Space group operators:
 irot       det(A)        alpha          n_x          n_y          n_z        tau_x        tau_y        tau_z
    1     1.000000     0.000000     1.000000     0.000000     0.000000     0.000000     0.000000     0.000000
 
 Subroutine IBZKPT returns following result:
 ===========================================
 
 Found      1 irreducible k-points:
 
 Following reciprocal coordinates:
            Coordinates               Weight
  0.000000  0.000000  0.000000      1.000000
 
 Following cartesian coordinates:
            Coordinates               Weight
  0.000000  0.000000  0.000000      1.000000
 


--------------------------------------------------------------------------------------------------------




 Dimension of arrays:
   k-points           NKPTS =      1   k-points in BZ     NKDIM =      1   number of bands    NBANDS=    592
   number of dos      NEDOS =    301   number of ions     NIONS =    112
   non local maximal  LDIM  =      8   non local SUM 2l+1 LMDIM =     32
   total plane-waves  NPLWV = 933120
   max r-space proj   IRMAX =   5592   max aug-charges    IRDMAX= 143303
   dimension x,y,z NGX =    72 NGY =   80 NGZ =  162
   dimension x,y,z NGXF=   144 NGYF=  160 NGZF=  324
   support grid    NGXF=   288 NGYF=  320 NGZF=  648
   ions per type =              36  71   1   3   1
 NGX,Y,Z   is equivalent  to a cutoff of  10.90, 11.42, 10.90 a.u.
 NGXF,Y,Z  is equivalent  to a cutoff of  21.80, 22.84, 21.80 a.u.


 I would recommend the setting:
   dimension x,y,z NGX =    72 NGY =   76 NGZ =  161
 SYSTEM =  unknown system                          
 POSCAR =  CeO2-110-l3-p23:                        

 Startparameter for this run:
   NWRITE =      2    write-flag & timer
   PREC   = accura    normal or accurate (medium, high low for compatibility)
   ISTART =      1    job   : 0-new  1-cont  2-samecut
   ICHARG =      0    charge: 1-file 2-atom 10-const
   ISPIN  =      2    spin polarized calculation?
   LNONCOLLINEAR =      F non collinear calculations
   LSORBIT =      F    spin-orbit coupling
   INIWAV =      1    electr: 0-lowe 1-rand  2-diag
   LASPH  =      T    aspherical Exc in radial PAW
   METAGGA=      F    non-selfconsistent MetaGGA calc.

 Electronic Relaxation 1
   ENCUT  =  400.0 eV  29.40 Ry    5.42 a.u.  17.91 18.99 40.29*2*pi/ulx,y,z
   ENINI  =  400.0     initial cutoff
   ENAUG  =  644.9 eV  augmentation charge cutoff
   NELM   =    100;   NELMIN=  2; NELMDL=  0     # of ELM steps 
   EDIFF  = 0.1E-03   stopping-criterion for ELM
   LREAL  =      T    real-space projection
   NLSPLINE    = F    spline interpolate recip. space projectors
   LCOMPAT=      F    compatible to vasp.4.4
   GGA_COMPAT  = T    GGA compatible to vasp.4.4-vasp.4.6
   LMAXPAW     = -100 max onsite density
   LMAXMIX     =    6 max onsite mixed and CHGCAR
   VOSKOWN=      0    Vosko Wilk Nusair interpolation
   ROPT   =   -0.00025  -0.00025  -0.00025  -0.00025
   ROPT   =   -0.00025
 Ionic relaxation
   EDIFFG = -.5E-01   stopping-criterion for IOM
   NSW    =     30    number of steps for IOM
   NBLOCK =      1;   KBLOCK =     30    inner block; outer block 
   IBRION =      1    ionic relax: 0-MD 1-quasi-New 2-CG
   NFREE  =      0    steps in history (QN), initial steepest desc. (CG)
   ISIF   =      2    stress and relaxation
   IWAVPR =     11    prediction:  0-non 1-charg 2-wave 3-comb
   ISYM   =      0    0-nonsym 1-usesym 2-fastsym
   LCORR  =      T    Harris-Foulkes like correction to forces

   POTIM  = 0.1000    time-step for ionic-motion
   TEIN   =    0.0    initial temperature
   TEBEG  =    0.0;   TEEND  =   0.0 temperature during run
   SMASS  =  -3.00    Nose mass-parameter (am)
   estimated Nose-frequenzy (Omega)   =  0.10E-29 period in steps =****** mass=  -0.276E-26a.u.
   SCALEE = 1.0000    scale energy and forces
   NPACO  =    256;   APACO  = 16.0  distance and # of slots for P.C.
   PSTRESS=    0.0 pullay stress

  Mass of Ions in am
   POMASS = 140.12 16.00195.08 16.00 12.01
  Ionic Valenz
   ZVAL   =  12.00  6.00 10.00  6.00  4.00
  Atomic Wigner-Seitz radii
   RWIGS  =  -1.00 -1.00 -1.00 -1.00 -1.00
  virtual crystal weights 
   VCA    =   1.00  1.00  1.00  1.00  1.00
   NELECT =     890.0000    total number of electrons
   NUPDOWN=      -1.0000    fix difference up-down

 DOS related values:
   EMIN   =  10.00;   EMAX   =-10.00  energy-range for DOS
   EFERMI =   0.00
   ISMEAR =     0;   SIGMA  =   0.05  broadening in eV -4-tet -1-fermi 0-gaus

 Electronic relaxation 2 (details)
   IALGO  =     68    algorithm
   LDIAG  =      T    sub-space diagonalisation (order eigenvalues)
   LSUBROT=      F    optimize rotation matrix (better conditioning)
   TURBO    =      0    0=normal 1=particle mesh
   IRESTART =      0    0=no restart 2=restart with 2 vectors
   NREBOOT  =      0    no. of reboots
   NMIN     =      0    reboot dimension
   EREF     =   0.00    reference energy to select bands
   IMIX   =      4    mixing-type and parameters
     AMIX     =   0.20;   BMIX     =  0.00
     AMIX_MAG =   0.80;   BMIX_MAG =  0.00
     AMIN     =   0.10
     WC   =   100.;   INIMIX=   1;  MIXPRE=   1;  MAXMIX= -45

 Intra band minimization:
   WEIMIN = 0.0010     energy-eigenvalue tresh-hold
   EBREAK =  0.42E-07  absolut break condition
   DEPER  =   0.30     relativ break condition  

   TIME   =   0.40     timestep for ELM

  volume/ion in A,a.u.               =      28.21       190.35
  Fermi-wavevector in a.u.,A,eV,Ry     =   1.073205  2.028063 15.670766  1.151769
  Thomas-Fermi vector in A             =   2.208998
 
 Write flags
   LWAVE  =      T    write WAVECAR
   LCHARG =      T    write CHGCAR
   LVTOT  =      F    write LOCPOT, total local potential
   LVHAR  =      F    write LOCPOT, Hartree potential only
   LELF   =      F    write electronic localiz. function (ELF)
   LORBIT =     11    0 simple, 1 ext, 2 COOP (PROOUT)


 Dipole corrections
   LMONO  =      F    monopole corrections only (constant potential shift)
   LDIPOL =      T    correct potential (dipole corrections)
   IDIPOL =      3    1-x, 2-y, 3-z, 4-all directions 
   EPSILON=  1.0000000 bulk dielectric constant

 LDA+U is selected, type is set to LDAUTYPE =  2
   angular momentum for each species LDAUL =     3   -1   -1   -1   -1
   U (eV)           for each species LDAUU =   4.5  0.0  0.0  0.0  0.0
   J (eV)           for each species LDAUJ =   0.0  0.0  0.0  0.0  0.0
 Exchange correlation treatment:
   GGA     =    --    GGA type
   LEXCH   =     8    internal setting for exchange type
   VOSKOWN=      0    Vosko Wilk Nusair interpolation
   LHFCALC =     F    Hartree Fock is set to
   LHFONE  =     F    Hartree Fock one center treatment
   AEXX    =    0.0000 exact exchange contribution

 Linear response parameters
   LEPSILON=     F    determine dielectric tensor
   LRPA    =     F    only Hartree local field effects (RPA)
   LNABLA  =     F    use nabla operator in PAW spheres
   LVEL    =     F    velocity operator in full k-point grid
   LINTERFAST=   F  fast interpolation
   KINTER  =     0    interpolate to denser k-point grid
   CSHIFT  =0.1000    complex shift for real part using Kramers Kronig
   OMEGAMAX=  -1.0    maximum frequency
   DEG_THRESHOLD= 0.2000000E-02 threshold for treating states as degnerate
   RTIME   =    0.100 relaxation time in fs

 Orbital magnetization related:
   ORBITALMAG=     F  switch on orbital magnetization
   LCHIMAG   =     F  perturbation theory with respect to B field
   DQ        =  0.001000  dq finite difference perturbation B field



--------------------------------------------------------------------------------------------------------


 quasi-Newton-method for relaxation of ions
   using selective dynamics as specified on POSCAR
 charge density and potential will be updated during run
 spin polarized calculation
 RMM-DIIS sequential band-by-band and
  variant of blocked Davidson during initial phase
 perform sub-space diagonalisation
    before iterative eigenvector-optimisation
 modified Broyden-mixing scheme, WC =      100.0
 initial mixing is a Kerker type mixing with AMIX =  0.2000 and BMIX =      0.0010
 Hartree-type preconditioning will be used
 using additional bands          147
 real space projection scheme for non local part
 use partial core corrections
 calculate Harris-corrections to forces 
   (improved forces if not selfconsistent)
 use gradient corrections 
 use of overlap-Matrix (Vanderbilt PP)
 Gauss-broadening in eV      SIGMA  =   0.05


--------------------------------------------------------------------------------------------------------


  energy-cutoff  :      400.00
  volume of cell :     3159.12
      direct lattice vectors                 reciprocal lattice vectors
    10.980000000  0.000000000  0.000000000     0.091074681  0.000000000  0.000000000
     0.000000000 11.646048686  0.000000000     0.000000000  0.085866033  0.000000000
     0.000000000  0.000000000 24.705040572     0.000000000  0.000000000  0.040477570

  length of vectors
    10.980000000 11.646048686 24.705040572     0.091074681  0.085866033  0.040477570


 
 old parameters found on file WAVECAR:
  energy-cutoff  :      400.00
  volume of cell :     3159.12
      direct lattice vectors                 reciprocal lattice vectors
    10.980000000  0.000000000  0.000000000     0.091074681  0.000000000  0.000000000
     0.000000000 11.646048686  0.000000000     0.000000000  0.085866033  0.000000000
     0.000000000  0.000000000 24.705040572     0.000000000  0.000000000  0.040477570

  length of vectors

 
 k-points in units of 2pi/SCALE and weight: CeO2-111-3x3-9layers         ! Comment  
   0.00000000  0.00000000  0.00000000       1.000
 
 k-points in reciprocal lattice and weights: CeO2-111-3x3-9layers         ! Comment  
   0.00000000  0.00000000  0.00000000       1.000
 
 position of ions in fractional coordinates (direct lattice) 
   0.77120274  0.16666677  0.00000000
   0.77120274  0.50000010  0.00000000
   0.27120274  0.16666677  0.00000000
   0.77120274  0.83333343  0.00000000
   0.27120274  0.50000010  0.00000000
   0.27120274  0.83333343  0.00000000
   0.52120274  0.00000010  0.07856729
   0.52120274  0.66666677  0.07856729
   0.02120274  0.00000010  0.07856729
   0.52120274  0.33333343  0.07856729
   0.02120274  0.33333343  0.07856729
   0.02120274  0.66666677  0.07856729
   0.77183193  0.16661278  0.15733003
   0.77141476  0.83257315  0.15775284
   0.27129932  0.16586200  0.15739527
   0.77150831  0.49994508  0.15772321
   0.27142728  0.50026708  0.15758264
   0.27124212  0.83247111  0.15682683
   0.02076894  0.66618672  0.23468493
   0.52282543  0.66528065  0.23432733
   0.02064588  0.33305455  0.23399946
   0.02107098  0.99873882  0.23414305
   0.52286686  0.00008960  0.23255177
   0.52073802  0.33233330  0.23281228
   0.76757294  0.49966238  0.31758029
   0.77032206  0.16670835  0.31596193
   0.27195816  0.49755615  0.31607890
   0.27752995  0.83291518  0.31293571
   0.27152225  0.16473010  0.31610118
   0.77102504  0.83184405  0.31782566
   0.01775267  0.00639941  0.38611581
   0.52219853  0.00114944  0.38340507
   0.01881410  0.65782712  0.38669634
   0.51793985  0.66528454  0.38823837
   0.02000377  0.33263435  0.38496716
   0.51976975  0.33065842  0.38362821
   0.64620274  0.33333343  0.00000000
   0.14620274  0.00000010  0.00000000
   0.64620274  0.66666677  0.00000000
   0.89620274  0.00000010  0.00000000
   0.89620274  0.33333343  0.00000000
   0.14620274  0.33333343  0.00000000
   0.39620274  0.66666677  0.00000000
   0.39620274  0.00000010  0.00000000
   0.64620274  0.00000010  0.00000000
   0.39620274  0.33333343  0.00000000
   0.89620274  0.66666677  0.00000000
   0.14620274  0.66666677  0.00000000
   0.39620274  0.83333343  0.07856729
   0.64620274  0.83333343  0.07856729
   0.39620274  0.16666677  0.07856729
   0.14620274  0.16666677  0.07856729
   0.89620274  0.16666677  0.07856729
   0.89620274  0.83333343  0.07856729
   0.64620274  0.16666677  0.07856729
   0.14620274  0.83333343  0.07856729
   0.39620274  0.50000010  0.07856729
   0.14620274  0.50000010  0.07856729
   0.89620274  0.50000010  0.07856729
   0.64620274  0.50000010  0.07856729
   0.64748670  0.99978875  0.15630659
   0.39618631  0.66639393  0.15681346
   0.64694884  0.66622564  0.15683175
   0.89653466  0.66695963  0.15738578
   0.14619631  0.99958211  0.15683428
   0.89659899  0.99905701  0.15741548
   0.39605725  0.99817579  0.15624500
   0.14611880  0.66612951  0.15705278
   0.39542237  0.33401731  0.15618661
   0.89634221  0.33318309  0.15682130
   0.64697501  0.33312002  0.15649567
   0.14621241  0.33292202  0.15777387
   0.64687016  0.16611840  0.23460988
   0.64692164  0.83261712  0.23484363
   0.39705503  0.83181336  0.23514630
   0.89667289  0.49932332  0.23529184
   0.14769401  0.83296832  0.23475895
   0.64600575  0.49964470  0.23508636
   0.39709371  0.16560969  0.23248597
   0.89703481  0.16682986  0.23507892
   0.39648611  0.49969173  0.23497761
   0.14581892  0.50164003  0.23639013
   0.14614170  0.16260794  0.23650731
   0.89742838  0.83244096  0.23661293
   0.64579060  0.33225375  0.31177527
   0.89662401  0.00277960  0.31344095
   0.14480987  0.67302585  0.31596820
   0.39512701  0.32638960  0.30959624
   0.64761151  0.99921137  0.31168387
   0.64663621  0.66666020  0.31284807
   0.39707547  0.00315116  0.30926331
   0.89569386  0.66280737  0.31421016
   0.39566080  0.66540750  0.31339277
   0.89589182  0.33293720  0.31339670
   0.14493471  0.33116404  0.31278959
   0.14519170  0.99103829  0.31641803
   0.64149005  0.83423656  0.39070660
   0.15199430  0.82592534  0.40741156
   0.40159076  0.84561386  0.38517066
   0.40063725  0.16390751  0.38958245
   0.13743589  0.16483841  0.39052384
   0.91377904  0.83439609  0.38861777
   0.90103285  0.16647278  0.39199030
   0.64027544  0.16536093  0.38938328
   0.90074259  0.49754307  0.39274035
   0.63851637  0.49835148  0.39022238
   0.13686794  0.49708897  0.38946822
   0.25025788  0.76864014  0.46694707
   0.40145851  0.48272632  0.38494311
   0.37766701  0.65574459  0.45216988
   0.32999186  0.70505878  0.57858145
   0.29729145  0.73288112  0.53578788
 
 position of ions in cartesian coordinates  (Angst):
   8.46780604  1.94100927  0.00000000
   8.46780604  5.82302550  0.00000000
   2.97780604  1.94100927  0.00000000
   8.46780604  9.70504173  0.00000000
   2.97780604  5.82302550  0.00000000
   2.97780604  9.70504173  0.00000000
   5.72280604  0.00000116  1.94100811
   5.72280604  7.76403361  1.94100811
   0.23280604  0.00000116  1.94100811
   5.72280604  3.88201739  1.94100811
   0.23280604  3.88201739  1.94100811
   0.23280604  7.76403361  1.94100811
   8.47471456  1.94038051  3.88684483
   8.47013405  9.69618739  3.89729037
   2.97886657  1.93163688  3.88845663
   8.47116121  5.82238471  3.89655820
   2.98027156  5.82613477  3.89308563
   2.97823852  9.69499913  3.87441311
   0.22804299  7.75844301  5.79790079
   5.74062324  7.74789087  5.78906628
   0.22669174  3.87876946  5.78096614
   0.23135934 11.63136089  5.78451347
   5.74107811  0.00104344  5.74520097
   5.71770351  3.87036981  5.75163681
   8.42795085  5.81909239  7.84583402
   8.45813621  1.94149362  7.80585223
   2.98610060  5.79456315  7.80874201
   3.04727887  9.70017073  7.73108934
   2.98131428  1.91845482  7.80929245
   8.46585489  9.68769629  7.85189588
   0.19492427  0.07452781  9.53900670
   5.73373986  0.01338643  9.47203780
   0.20657885  7.66108663  9.55334872
   5.68697956  7.74793616  9.59144480
   0.21964143  3.87387581  9.51062921
   5.70707187  3.85086402  9.47755054
   7.09530604  3.88201739  0.00000000
   1.60530604  0.00000116  0.00000000
   7.09530604  7.76403361  0.00000000
   9.84030604  0.00000116  0.00000000
   9.84030604  3.88201739  0.00000000
   1.60530604  3.88201739  0.00000000
   4.35030604  7.76403361  0.00000000
   4.35030604  0.00000116  0.00000000
   7.09530604  0.00000116  0.00000000
   4.35030604  3.88201739  0.00000000
   9.84030604  7.76403361  0.00000000
   1.60530604  7.76403361  0.00000000
   4.35030604  9.70504173  1.94100811
   7.09530604  9.70504173  1.94100811
   4.35030604  1.94100927  1.94100811
   1.60530604  1.94100927  1.94100811
   9.84030604  1.94100927  1.94100811
   9.84030604  9.70504173  1.94100811
   7.09530604  1.94100927  1.94100811
   1.60530604  9.70504173  1.94100811
   4.35030604  5.82302550  1.94100811
   1.60530604  5.82302550  1.94100811
   9.84030604  5.82302550  1.94100811
   7.09530604  5.82302550  1.94100811
   7.10940399 11.64358844  3.86156066
   4.35012566  7.76085618  3.87408289
   7.10349830  7.75889621  3.87453467
   9.84395058  7.76744431  3.88822205
   1.60523548 11.64118196  3.87459722
   9.84465692 11.63506661  3.88895585
   4.34870855 11.62480381  3.86003919
   1.60438446  7.75777670  3.87999533
   4.34173757  3.88998191  3.85859661
   9.84183751  3.88026649  3.87427660
   7.10378563  3.87953196  3.86623185
   1.60541227  3.87722601  3.89780977
   7.10263431  1.93462299  5.79604668
   7.10319957  9.69669952  5.80182151
   4.35966422  9.68733890  5.80929891
   9.84546830  5.81514366  5.81289442
   1.62168018  9.70078960  5.79972930
   7.09314311  5.81888651  5.80781798
   4.36008892  1.92869848  5.74357524
   9.84944225  1.94290870  5.80763422
   4.35341749  5.81943418  5.80513139
   1.60109171  5.84212417  5.84002770
   1.60463586  1.89374002  5.84292269
   9.85376364  9.69464795  5.84553215
   7.09078079  3.86944341  7.70242069
   9.84493158  0.03237141  7.74357139
   1.59001237  7.83809180  7.80600708
   4.33849456  3.80114922  7.64858773
   7.11077441 11.63686429  7.70016258
   7.10006561  7.76395714  7.72892429
   4.35988869  0.03669851  7.64036270
   9.83471856  7.71908690  7.76257465
   4.34435555  7.74936810  7.74238099
   9.83689216  3.87740287  7.74247825
   1.59138315  3.85675257  7.72747942
   1.59420484 11.54168022  7.81712021
   7.04356073  9.71555955  9.65242241
   1.66889741  9.61876673 10.06511919
   4.40946660  9.84806015  9.51565677
   4.39899703  1.90887485  9.62465030
   1.50904605  1.91971613  9.64790743
  10.03329391  9.71741746  9.60081777
   9.89334067  1.93875013  9.68413634
   7.03022435  1.92580149  9.61972984
   9.89015364  5.79441076  9.70266640
   7.01090977  5.80382560  9.64045961
   1.50281000  5.78912232  9.62182817
   2.74783156  8.95162051 11.53594628
   4.40801443  5.62185418  9.51003506
   4.14678375  7.63683346 11.17087530
   3.62331059  8.21114889 14.29387822
   3.26426010  8.53516920 13.23666137
 


--------------------------------------------------------------------------------------------------------


 use parallel FFT for wavefunctions z direction half grid
 k-point  1 :   0.0000 0.0000 0.0000  plane waves:   28608

 maximum and minimum number of plane-waves per node :      4774     4761

 maximum number of plane-waves:     28608
 maximum index in each direction: 
   IXMAX=   17   IYMAX=   18   IZMAX=   40
   IXMIN=  -17   IYMIN=  -18   IZMIN=    0

 NGX is ok and might be reduce to  70
 NGY is ok and might be reduce to  74
 NGZ is ok and might be reduce to 162

 real space projection operators:
  total allocation   :      68363.53 KBytes
  max/ min on nodes  :      11623.44      11254.62


 parallel 3D FFT for wavefunctions:
    minimum data exchange during FFTs selected (reduces bandwidth)
 parallel 3D FFT for charge:
    minimum data exchange during FFTs selected (reduces bandwidth)


 total amount of memory used by VASP on root node   111233. kBytes
========================================================================

   base      :      30000. kBytes
   nonlr-proj:      13903. kBytes
   fftplans  :      26017. kBytes
   grid      :      28730. kBytes
   one-center:        933. kBytes
   wavefun   :      11650. kBytes
 
     INWAV:  cpu time    2.19: real time    2.22
 Broyden mixing: mesh for mixing (old mesh)
   NGX = 35   NGY = 37   NGZ = 81
  (NGX  =144   NGY  =160   NGZ  =324)
  gives a total of 104895 points

 charge density for first step will be calculated from the start-wavefunctions


--------------------------------------------------------------------------------------------------------


 Maximum index for non-local projection operator          903
 Maximum index for augmentation-charges         2920 (set IRDMAX)


--------------------------------------------------------------------------------------------------------


 initial charge from wavefunction
 First call to EWALD:  gamma=   0.121
 Maximum number of real-space cells 4x 3x 2
 Maximum number of reciprocal cells 2x 2x 4

 FEWALD executed in parallel
    FEWALD:  cpu time    0.01: real time    0.01


----------------------------------------- Iteration    1(   1)  ---------------------------------------


    POTLOK:  cpu time    0.57: real time    0.64
    SETDIJ:  cpu time    3.34: real time    3.85
     EDDAV:  cpu time   14.29: real time   15.12
       DOS:  cpu time    0.00: real time    0.00
    CHARGE:  cpu time    1.65: real time    1.82
    MIXING:  cpu time    0.01: real time    0.01
    --------------------------------------------
      LOOP:  cpu time   19.86: real time   21.46

 eigenvalue-minimisations  :  2592
 total energy-change (2. order) :-0.8906124E+03  (-0.4670717E-04)
 number of electron     889.9999992 magnetization       0.0000000
 augmentation part      -13.9210782 magnetization      -0.0000001

 DIPCOR: dipole corrections for dipol
 direction  3 min pos   236,
 dipolmoment           0.000000      0.000000      0.910876 electrons x Angstroem
 Tr[quadrupol]    -19603.203296

 energy correction for charged system         0.000000 eV
 dipol+quadrupol energy correction           -0.023767 eV
 added-field ion interaction         24.025593 eV  (added to PSCEN)


 Broyden mixing:
  rms(total) = 0.10375E-01    rms(broyden)= 0.10372E-01
  rms(prec ) = 0.10844E-01
  weight for this iteration     100.00

 Free energy of the ion-electron system (eV)
  ---------------------------------------------------
  alpha Z        PSCENC =      2318.19973094
  Ewald energy   TEWEN  =    246084.38403930
  -Hartree energ DENC   =   -314506.08714724
  -exchange      EXHF   =         0.00000000
  -V(xc)+E(xc)   XCENC  =      2337.67240664
  PAW double counting   =     67852.31951744   -66992.80212178
  entropy T*S    EENTRO =        -0.00000000
  eigenvalues    EBANDS =     -9117.49097813
  atomic energy  EATOM  =     71133.19218135
  ---------------------------------------------------
  free energy    TOTEN  =      -890.61237147 eV

  energy without entropy =     -890.61237147  energy(sigma->0) =     -890.61237147


--------------------------------------------------------------------------------------------------------




----------------------------------------- Iteration    1(   2)  ---------------------------------------


    POTLOK:  cpu time    0.43: real time    0.43
    SETDIJ:  cpu time    3.31: real time    3.66
    EDDIAG:  cpu time    2.41: real time    3.29
  RMM-DIIS:  cpu time    4.98: real time    4.98
    ORTHCH:  cpu time    0.43: real time    0.91
       DOS:  cpu time    0.00: real time    0.00
    --------------------------------------------
      LOOP:  cpu time   11.58: real time   13.29

 eigenvalue-minimisations  :  1678
 total energy-change (2. order) : 0.5106443E-04  (-0.3703061E-04)
 number of electron     889.9999992 magnetization       0.0000000
 augmentation part      -13.9210782 magnetization      -0.0000001

 DIPCOR: dipole corrections for dipol
 direction  3 min pos   236,
 dipolmoment           0.000000      0.000000      0.912281 electrons x Angstroem
 Tr[quadrupol]    -19603.198319

 energy correction for charged system         0.000000 eV
 dipol+quadrupol energy correction           -0.023841 eV
 added-field ion interaction         24.062648 eV  (added to PSCEN)


 Free energy of the ion-electron system (eV)
  ---------------------------------------------------
  alpha Z        PSCENC =      2318.23671293
  Ewald energy   TEWEN  =    246084.38403930
  -Hartree energ DENC   =   -314505.92522623
  -exchange      EXHF   =         0.00000000
  -V(xc)+E(xc)   XCENC  =      2337.67357507
  PAW double counting   =     67852.39516619   -66992.87478637
  entropy T*S    EENTRO =        -0.00000000
  eigenvalues    EBANDS =     -9117.69398265
  atomic energy  EATOM  =     71133.19218135
  ---------------------------------------------------
  free energy    TOTEN  =      -890.61232041 eV

  energy without entropy =     -890.61232041  energy(sigma->0) =     -890.61232041


--------------------------------------------------------------------------------------------------------




 average (electrostatic) potential at core
  the test charge radii are     1.1513  0.7215  1.2059  0.7215  0.6991
  (the norm of the test charge is              1.0000)
       1 -84.7072       2 -84.7037       3 -84.7188       4 -84.7144       5 -84.7136
       6 -84.7070       7 -84.3267       8 -84.3304       9 -84.3562      10 -84.3200
      11 -84.3631      12 -84.3542      13 -84.4242      14 -84.4336      15 -84.4157
      16 -84.4173      17 -84.4375      18 -84.4253      19 -84.4674      20 -84.4040
      21 -84.4504      22 -84.4729      23 -84.3771      24 -84.3601      25 -84.3569
      26 -84.3914      27 -84.3226      28 -84.4650      29 -84.3872      30 -84.4082
      31 -84.5362      32 -84.2667      33 -84.4868      34 -84.2281      35 -84.4384
      36 -84.1934      37 -73.2190      38 -73.2323      39 -73.2184      40 -73.2285
      41 -73.2280      42 -73.2305      43 -73.2244      44 -73.2250      45 -73.2204
      46 -73.2199      47 -73.2251      48 -73.2306      49 -73.5854      50 -73.5517
      51 -73.5667      52 -73.5903      53 -73.5971      54 -73.5750      55 -73.5597
      56 -73.6011      57 -73.5566      58 -73.5799      59 -73.5734      60 -73.5467
      61 -73.6187      62 -73.5671      63 -73.5768      64 -73.5898      65 -73.5789
      66 -73.5940      67 -73.5922      68 -73.5804      69 -73.5820      70 -73.5988
      71 -73.5878      72 -73.5909      73 -73.4883      74 -73.4419      75 -73.5752
      76 -73.4445      77 -73.5582      78 -73.4638      79 -73.4410      80 -73.4937
      81 -73.4678      82 -73.5237      83 -73.5105      84 -73.5113      85 -73.7439
      86 -73.7943      87 -73.7456      88 -73.6727      89 -73.7482      90 -73.6256
      91 -73.7617      92 -73.7604      93 -73.6901      94 -73.7878      95 -73.7518
      96 -73.8431      97 -73.0472      98 -74.2071      99 -73.3180     100 -73.1511
     101 -73.3151     102 -73.2470     103 -73.2720     104 -73.2140     105 -73.2339
     106 -73.0239     107 -73.2997     108 -73.6601     109 -73.1874     110 -73.9277
     111 -77.0564     112 -56.4022
 
 
 
 E-fermi :   0.7224     XC(G=0):  -6.0375     alpha+bet : -7.5773


 spin component 1

 k-point     1 :       0.0000    0.0000    0.0000
  band No.  band energies     occupation 
      1     -34.0492      1.00000
      2     -34.0422      1.00000
      3     -34.0124      1.00000
      4     -34.0086      1.00000
      5     -34.0071      1.00000
      6     -34.0025      1.00000
      7     -33.8491      1.00000
      8     -33.7821      1.00000
      9     -33.7313      1.00000
     10     -33.6892      1.00000
     11     -33.6462      1.00000
     12     -33.6171      1.00000
     13     -33.6141      1.00000
     14     -33.6010      1.00000
     15     -33.5975      1.00000
     16     -33.5906      1.00000
     17     -33.5695      1.00000
     18     -33.5627      1.00000
     19     -33.5573      1.00000
     20     -33.5569      1.00000
     21     -33.5481      1.00000
     22     -33.5447      1.00000
     23     -33.5317      1.00000
     24     -33.5229      1.00000
     25     -33.5158      1.00000
     26     -33.5021      1.00000
     27     -33.4987      1.00000
     28     -33.4899      1.00000
     29     -33.4870      1.00000
     30     -33.4721      1.00000
     31     -33.4680      1.00000
     32     -33.4661      1.00000
     33     -33.4652      1.00000
     34     -33.4439      1.00000
     35     -33.4406      1.00000
     36     -33.4345      1.00000
     37     -22.7953      1.00000
     38     -19.0926      1.00000
     39     -19.0336      1.00000
     40     -18.9792      1.00000
     41     -18.9004      1.00000
     42     -18.8222      1.00000
     43     -18.7963      1.00000
     44     -18.7775      1.00000
     45     -18.7302      1.00000
     46     -18.7130      1.00000
     47     -18.6822      1.00000
     48     -18.6451      1.00000
     49     -18.6326      1.00000
     50     -18.5867      1.00000
     51     -18.5701      1.00000
     52     -18.5557      1.00000
     53     -18.5516      1.00000
     54     -18.5182      1.00000
     55     -18.5134      1.00000
     56     -18.4993      1.00000
     57     -18.4877      1.00000
     58     -18.4714      1.00000
     59     -18.4423      1.00000
     60     -18.4322      1.00000
     61     -18.4161      1.00000
     62     -18.4047      1.00000
     63     -18.3504      1.00000
     64     -18.3216      1.00000
     65     -18.3084      1.00000
     66     -18.2836      1.00000
     67     -18.2736      1.00000
     68     -18.2199      1.00000
     69     -18.1996      1.00000
     70     -18.1797      1.00000
     71     -18.1407      1.00000
     72     -18.0876      1.00000
     73     -18.0838      1.00000
     74     -18.0825      1.00000
     75     -18.0739      1.00000
     76     -18.0622      1.00000
     77     -18.0420      1.00000
     78     -18.0001      1.00000
     79     -17.9861      1.00000
     80     -17.9823      1.00000
     81     -17.8082      1.00000
     82     -17.7865      1.00000
     83     -17.7673      1.00000
     84     -17.6955      1.00000
     85     -17.6720      1.00000
     86     -17.6103      1.00000
     87     -17.4600      1.00000
     88     -17.4194      1.00000
     89     -17.2655      1.00000
     90     -17.1491      1.00000
     91     -17.0095      1.00000
     92     -16.9660      1.00000
     93     -16.9490      1.00000
     94     -16.9389      1.00000
     95     -16.9213      1.00000
     96     -16.9002      1.00000
     97     -16.8264      1.00000
     98     -16.7351      1.00000
     99     -16.6913      1.00000
    100     -16.6301      1.00000
    101     -16.6060      1.00000
    102     -16.5891      1.00000
    103     -16.5859      1.00000
    104     -16.5849      1.00000
    105     -16.5609      1.00000
    106     -16.5229      1.00000
    107     -16.4391      1.00000
    108     -16.3874      1.00000
    109     -16.3570      1.00000
    110     -16.3291      1.00000
    111     -16.3142      1.00000
    112     -16.3111      1.00000
    113     -16.3018      1.00000
    114     -16.2752      1.00000
    115     -16.2700      1.00000
    116     -16.2513      1.00000
    117     -16.2442      1.00000
    118     -16.2339      1.00000
    119     -16.2285      1.00000
    120     -16.2239      1.00000
    121     -16.2166      1.00000
    122     -16.1952      1.00000
    123     -16.1773      1.00000
    124     -16.1600      1.00000
    125     -16.1468      1.00000
    126     -16.1302      1.00000
    127     -16.1146      1.00000
    128     -16.0961      1.00000
    129     -16.0877      1.00000
    130     -16.0778      1.00000
    131     -16.0507      1.00000
    132     -16.0482      1.00000
    133     -16.0434      1.00000
    134     -16.0213      1.00000
    135     -16.0127      1.00000
    136     -16.0090      1.00000
    137     -16.0024      1.00000
    138     -15.9979      1.00000
    139     -15.9815      1.00000
    140     -15.9691      1.00000
    141     -15.9519      1.00000
    142     -15.9310      1.00000
    143     -15.9037      1.00000
    144     -15.8887      1.00000
    145     -15.8433      1.00000
    146     -15.8252      1.00000
    147     -15.8185      1.00000
    148     -15.7857      1.00000
    149     -15.7680      1.00000
    150     -15.7147      1.00000
    151     -15.6692      1.00000
    152     -15.6156      1.00000
    153     -15.5984      1.00000
    154     -15.5386      1.00000
    155     -15.5094      1.00000
    156     -15.4719      1.00000
    157     -15.4004      1.00000
    158     -15.3086      1.00000
    159     -15.2128      1.00000
    160     -15.1941      1.00000
    161     -15.1878      1.00000
    162     -15.1772      1.00000
    163     -15.1596      1.00000
    164     -15.1242      1.00000
    165     -15.1199      1.00000
    166     -14.9364      1.00000
    167     -14.8577      1.00000
    168     -14.7499      1.00000
    169     -14.7016      1.00000
    170     -14.6142      1.00000
    171     -14.5603      1.00000
    172     -14.5026      1.00000
    173     -14.4001      1.00000
    174     -14.3464      1.00000
    175     -14.3024      1.00000
    176     -14.1679      1.00000
    177     -14.1114      1.00000
    178     -14.0420      1.00000
    179     -14.0305      1.00000
    180     -14.0014      1.00000
    181     -13.9899      1.00000
    182     -13.9799      1.00000
    183     -13.9603      1.00000
    184     -13.9499      1.00000
    185     -13.9365      1.00000
    186     -13.9286      1.00000
    187     -13.9124      1.00000
    188     -13.8508      1.00000
    189     -13.8348      1.00000
    190     -13.7757      1.00000
    191     -13.7603      1.00000
    192     -13.7536      1.00000
    193     -13.7280      1.00000
    194     -13.6850      1.00000
    195     -13.6720      1.00000
    196     -13.6640      1.00000
    197     -13.6144      1.00000
    198     -13.5986      1.00000
    199     -13.5779      1.00000
    200     -13.5530      1.00000
    201     -13.5511      1.00000
    202     -13.5117      1.00000
    203     -13.4356      1.00000
    204     -13.4237      1.00000
    205     -13.4025      1.00000
    206     -13.3732      1.00000
    207     -13.3689      1.00000
    208     -13.2980      1.00000
    209     -13.2742      1.00000
    210     -13.1997      1.00000
    211     -13.1705      1.00000
    212     -13.1009      1.00000
    213     -13.0073      1.00000
    214     -12.9618      1.00000
    215     -12.9561      1.00000
    216     -12.9053      1.00000
    217     -12.7735      1.00000
    218     -12.5970      1.00000
    219      -9.0715      1.00000
    220      -6.6519      1.00000
    221      -5.8270      1.00000
    222      -5.6995      1.00000
    223      -4.4236      1.00000
    224      -4.0185      1.00000
    225      -3.9922      1.00000
    226      -3.8738      1.00000
    227      -3.8346      1.00000
    228      -3.7374      1.00000
    229      -3.6905      1.00000
    230      -3.6519      1.00000
    231      -3.6184      1.00000
    232      -3.6017      1.00000
    233      -3.5803      1.00000
    234      -3.4803      1.00000
    235      -3.4175      1.00000
    236      -3.3945      1.00000
    237      -3.3468      1.00000
    238      -3.3200      1.00000
    239      -3.3147      1.00000
    240      -3.2806      1.00000
    241      -3.2429      1.00000
    242      -3.2367      1.00000
    243      -3.2182      1.00000
    244      -3.2096      1.00000
    245      -3.1799      1.00000
    246      -3.1771      1.00000
    247      -3.1654      1.00000
    248      -3.1566      1.00000
    249      -3.1523      1.00000
    250      -3.1367      1.00000
    251      -3.1253      1.00000
    252      -3.1141      1.00000
    253      -3.0987      1.00000
    254      -3.0800      1.00000
    255      -3.0618      1.00000
    256      -3.0231      1.00000
    257      -3.0201      1.00000
    258      -3.0111      1.00000
    259      -2.9962      1.00000
    260      -2.9844      1.00000
    261      -2.9658      1.00000
    262      -2.9602      1.00000
    263      -2.9435      1.00000
    264      -2.9140      1.00000
    265      -2.8836      1.00000
    266      -2.8783      1.00000
    267      -2.8707      1.00000
    268      -2.8529      1.00000
    269      -2.8404      1.00000
    270      -2.8242      1.00000
    271      -2.8206      1.00000
    272      -2.8066      1.00000
    273      -2.7954      1.00000
    274      -2.7903      1.00000
    275      -2.7769      1.00000
    276      -2.7325      1.00000
    277      -2.7285      1.00000
    278      -2.7169      1.00000
    279      -2.6980      1.00000
    280      -2.6798      1.00000
    281      -2.6680      1.00000
    282      -2.6175      1.00000
    283      -2.5909      1.00000
    284      -2.5778      1.00000
    285      -2.5237      1.00000
    286      -2.5100      1.00000
    287      -2.5022      1.00000
    288      -2.4931      1.00000
    289      -2.4717      1.00000
    290      -2.4361      1.00000
    291      -2.4169      1.00000
    292      -2.3813      1.00000
    293      -2.3774      1.00000
    294      -2.3624      1.00000
    295      -2.3527      1.00000
    296      -2.3479      1.00000
    297      -2.3433      1.00000
    298      -2.3152      1.00000
    299      -2.2995      1.00000
    300      -2.2806      1.00000
    301      -2.2555      1.00000
    302      -2.2381      1.00000
    303      -2.1921      1.00000
    304      -2.1550      1.00000
    305      -2.1397      1.00000
    306      -2.1191      1.00000
    307      -2.0959      1.00000
    308      -2.0747      1.00000
    309      -2.0571      1.00000
    310      -2.0391      1.00000
    311      -2.0192      1.00000
    312      -2.0155      1.00000
    313      -1.9799      1.00000
    314      -1.9578      1.00000
    315      -1.9314      1.00000
    316      -1.9029      1.00000
    317      -1.8940      1.00000
    318      -1.8764      1.00000
    319      -1.8551      1.00000
    320      -1.8506      1.00000
    321      -1.8407      1.00000
    322      -1.8280      1.00000
    323      -1.8247      1.00000
    324      -1.7926      1.00000
    325      -1.7736      1.00000
    326      -1.7606      1.00000
    327      -1.7461      1.00000
    328      -1.7355      1.00000
    329      -1.7271      1.00000
    330      -1.7229      1.00000
    331      -1.7140      1.00000
    332      -1.7045      1.00000
    333      -1.7007      1.00000
    334      -1.6993      1.00000
    335      -1.6884      1.00000
    336      -1.6861      1.00000
    337      -1.6732      1.00000
    338      -1.6518      1.00000
    339      -1.6226      1.00000
    340      -1.6190      1.00000
    341      -1.5881      1.00000
    342      -1.5800      1.00000
    343      -1.5689      1.00000
    344      -1.5531      1.00000
    345      -1.5415      1.00000
    346      -1.5040      1.00000
    347      -1.4961      1.00000
    348      -1.4597      1.00000
    349      -1.4515      1.00000
    350      -1.4048      1.00000
    351      -1.3945      1.00000
    352      -1.3848      1.00000
    353      -1.3639      1.00000
    354      -1.3516      1.00000
    355      -1.3260      1.00000
    356      -1.3155      1.00000
    357      -1.2846      1.00000
    358      -1.2803      1.00000
    359      -1.2736      1.00000
    360      -1.2590      1.00000
    361      -1.2413      1.00000
    362      -1.2294      1.00000
    363      -1.2221      1.00000
    364      -1.2063      1.00000
    365      -1.2015      1.00000
    366      -1.1994      1.00000
    367      -1.1938      1.00000
    368      -1.1724      1.00000
    369      -1.1463      1.00000
    370      -1.1249      1.00000
    371      -1.1079      1.00000
    372      -1.0976      1.00000
    373      -1.0843      1.00000
    374      -1.0581      1.00000
    375      -1.0504      1.00000
    376      -1.0234      1.00000
    377      -1.0159      1.00000
    378      -1.0046      1.00000
    379      -0.9872      1.00000
    380      -0.9824      1.00000
    381      -0.9732      1.00000
    382      -0.9709      1.00000
    383      -0.9592      1.00000
    384      -0.9519      1.00000
    385      -0.9512      1.00000
    386      -0.9297      1.00000
    387      -0.9173      1.00000
    388      -0.9117      1.00000
    389      -0.9093      1.00000
    390      -0.8966      1.00000
    391      -0.8885      1.00000
    392      -0.8844      1.00000
    393      -0.8832      1.00000
    394      -0.8587      1.00000
    395      -0.8492      1.00000
    396      -0.8241      1.00000
    397      -0.8159      1.00000
    398      -0.8106      1.00000
    399      -0.7779      1.00000
    400      -0.7592      1.00000
    401      -0.7158      1.00000
    402      -0.6945      1.00000
    403      -0.6746      1.00000
    404      -0.6545      1.00000
    405      -0.6506      1.00000
    406      -0.6278      1.00000
    407      -0.6182      1.00000
    408      -0.6102      1.00000
    409      -0.6012      1.00000
    410      -0.5941      1.00000
    411      -0.5893      1.00000
    412      -0.5800      1.00000
    413      -0.5763      1.00000
    414      -0.5602      1.00000
    415      -0.5236      1.00000
    416      -0.5105      1.00000
    417      -0.4811      1.00000
    418      -0.4719      1.00000
    419      -0.4556      1.00000
    420      -0.4482      1.00000
    421      -0.4322      1.00000
    422      -0.4209      1.00000
    423      -0.4117      1.00000
    424      -0.4012      1.00000
    425      -0.3904      1.00000
    426      -0.3850      1.00000
    427      -0.3793      1.00000
    428      -0.3685      1.00000
    429      -0.3596      1.00000
    430      -0.3570      1.00000
    431      -0.3193      1.00000
    432      -0.3141      1.00000
    433      -0.2996      1.00000
    434      -0.2904      1.00000
    435      -0.2806      1.00000
    436      -0.2644      1.00000
    437      -0.2211      1.00000
    438      -0.0943      1.00000
    439       0.0159      1.00000
    440       0.0176      1.00000
    441       0.0477      1.00000
    442       0.1512      1.00000
    443       0.1526      1.00000
    444       0.1815      1.00000
    445       0.4737      1.00000
    446       1.6864      0.00000
    447       1.7744      0.00000
    448       1.8642      0.00000
    449       1.8659      0.00000
    450       1.8679      0.00000
    451       1.8704      0.00000
    452       1.8819      0.00000
    453       1.8839      0.00000
    454       1.8854      0.00000
    455       1.9056      0.00000
    456       1.9080      0.00000
    457       1.9493      0.00000
    458       1.9588      0.00000
    459       1.9609      0.00000
    460       1.9641      0.00000
    461       1.9828      0.00000
    462       1.9849      0.00000
    463       1.9914      0.00000
    464       1.9934      0.00000
    465       1.9977      0.00000
    466       2.0301      0.00000
    467       2.0308      0.00000
    468       2.0413      0.00000
    469       2.0525      0.00000
    470       2.0661      0.00000
    471       2.0711      0.00000
    472       2.0723      0.00000
    473       2.0757      0.00000
    474       2.0811      0.00000
    475       2.0855      0.00000
    476       2.0882      0.00000
    477       2.0906      0.00000
    478       2.0963      0.00000
    479       2.0978      0.00000
    480       2.1023      0.00000
    481       2.1036      0.00000
    482       2.1041      0.00000
    483       2.1091      0.00000
    484       2.1163      0.00000
    485       2.1189      0.00000
    486       2.1253      0.00000
    487       2.1326      0.00000
    488       2.1389      0.00000
    489       2.1498      0.00000
    490       2.1521      0.00000
    491       2.1572      0.00000
    492       2.1664      0.00000
    493       2.1689      0.00000
    494       2.1731      0.00000
    495       2.1803      0.00000
    496       2.1859      0.00000
    497       2.1901      0.00000
    498       2.1950      0.00000
    499       2.1974      0.00000
    500       2.2054      0.00000
    501       2.2056      0.00000
    502       2.2120      0.00000
    503       2.2162      0.00000
    504       2.2194      0.00000
    505       2.2231      0.00000
    506       2.2263      0.00000
    507       2.2276      0.00000
    508       2.2317      0.00000
    509       2.2341      0.00000
    510       2.2434      0.00000
    511       2.2484      0.00000
    512       2.2503      0.00000
    513       2.2545      0.00000
    514       2.2573      0.00000
    515       2.2588      0.00000
    516       2.2614      0.00000
    517       2.2627      0.00000
    518       2.2676      0.00000
    519       2.2704      0.00000
    520       2.2736      0.00000
    521       2.2788      0.00000
    522       2.2802      0.00000
    523       2.2857      0.00000
    524       2.2871      0.00000
    525       2.2876      0.00000
    526       2.2904      0.00000
    527       2.2937      0.00000
    528       2.2939      0.00000
    529       2.2957      0.00000
    530       2.3004      0.00000
    531       2.3030      0.00000
    532       2.3046      0.00000
    533       2.3061      0.00000
    534       2.3082      0.00000
    535       2.3114      0.00000
    536       2.3148      0.00000
    537       2.3169      0.00000
    538       2.3185      0.00000
    539       2.3205      0.00000
    540       2.3220      0.00000
    541       2.3231      0.00000
    542       2.3249      0.00000
    543       2.3272      0.00000
    544       2.3288      0.00000
    545       2.3305      0.00000
    546       2.3352      0.00000
[...]
      7.09531      0.00000      0.00000         1.150280      0.003686     -0.474219
      4.35031      3.88202      0.00000        -1.154985     -0.004759     -0.474311
      9.84031      7.76403      0.00000        -1.130899      0.001543     -0.451635
      1.60531      7.76403      0.00000         1.135868      0.007737     -0.448975
      4.35031      9.70504      1.94101        -0.365861     -0.051981     -0.393458
      7.09531      9.70504      1.94101         0.363702     -0.029175     -0.313102
      4.35031      1.94101      1.94101        -0.361194     -0.028937     -0.319893
      1.60531      1.94101      1.94101         0.331659      0.014698     -0.322272
      9.84031      1.94101      1.94101        -0.327721     -0.028441     -0.310261
      9.84031      9.70504      1.94101        -0.341935     -0.011728     -0.309874
      7.09531      1.94101      1.94101         0.367512     -0.006869     -0.342482
      1.60531      9.70504      1.94101         0.349110     -0.025480     -0.345256
      4.35031      5.82303      1.94101        -0.373926      0.032638     -0.348745
      1.60531      5.82303      1.94101         0.351500     -0.034819     -0.296001
      9.84031      5.82303      1.94101        -0.333661      0.013207     -0.304701
      7.09531      5.82303      1.94101         0.364090      0.006521     -0.333102
      7.10947     11.64365      3.86159        -0.000181     -0.000498      0.000120
      4.35015      7.76086      3.87402        -0.000315     -0.000671      0.000894
      7.10354      7.75890      3.87452        -0.000357     -0.000280      0.001479
      9.84396      7.76747      3.88822        -0.000881     -0.000059      0.000463
      1.60523     11.64123      3.87460        -0.000134      0.001169     -0.000285
      9.84467     11.63511      3.88902         0.000073     -0.000442     -0.000349
      4.34874     11.62485      3.86002         0.000012     -0.000155     -0.000437
      1.60437      7.75779      3.87995        -0.000135     -0.000507     -0.000361
      4.34178      3.88998      3.85859        -0.000571     -0.000052     -0.000277
      9.84184      3.88026      3.87430        -0.000136      0.000496     -0.001375
      7.10384      3.87951      3.86626        -0.000556     -0.000148     -0.000828
      1.60540      3.87722      3.89782         0.000103     -0.000936      0.000860
      7.10270      1.93464      5.79611        -0.000963      0.000532     -0.000921
      7.10329      9.69683      5.80181        -0.000650     -0.001082      0.003725
      4.35968      9.68739      5.80927        -0.000643     -0.000817      0.001738
      9.84549      5.81509      5.81290        -0.000601      0.000517      0.000185
      1.62164      9.70086      5.79971         0.001291     -0.000308     -0.001179
      7.09323      5.81880      5.80779        -0.000468     -0.000528      0.000315
      4.36012      1.92873      5.74356        -0.000816     -0.000438      0.000411
      9.84942      1.94291      5.80768        -0.000280      0.000898     -0.002347
      4.35340      5.81940      5.80513        -0.000168      0.000387      0.000254
      1.60107      5.84210      5.84006        -0.000574      0.002626      0.000284
      1.60460      1.89375      5.84298        -0.000107     -0.001486      0.002778
      9.85377      9.69477      5.84554        -0.000283     -0.000418      0.000940
      7.09078      3.86937      7.70244        -0.005979      0.000181      0.000064
      9.84485      0.03246      7.74356        -0.003472      0.002404     -0.001014
      1.58995      7.83802      7.80589        -0.001698      0.005240      0.000425
      4.33842      3.80115      7.64863        -0.003980      0.002405      0.002483
      7.11081     11.63698      7.70023        -0.005223      0.001683      0.000907
      7.10009      7.76394      7.72897        -0.000376     -0.004213      0.003695
      4.35988      0.03684      7.64036        -0.000658     -0.005850      0.003671
      9.83476      7.71914      7.76258        -0.001878     -0.000775      0.000904
      4.34431      7.74927      7.74235        -0.003061      0.004109     -0.004212
      9.83688      3.87735      7.74245        -0.002164      0.000247     -0.000651
      1.59136      3.85675      7.72749        -0.002732      0.003723      0.000135
      1.59417     11.54175      7.81709         0.000093     -0.006806      0.004348
      7.04362      9.71558      9.65256        -0.014120      0.011552     -0.006375
      1.66916      9.61862     10.06484        -0.028328     -0.004736      0.035985
      4.40971      9.84814      9.51571        -0.027528     -0.007140      0.011044
      4.39897      1.90893      9.62469        -0.003790     -0.002237      0.000487
      1.50908      1.91977      9.64791        -0.002523      0.003261     -0.002259
     10.03341      9.71755      9.60089        -0.008206      0.002585     -0.003861
      9.89327      1.93878      9.68411        -0.003724      0.001528      0.001057
      7.03019      1.92582      9.61970        -0.006978     -0.001228      0.000335
      9.89017      5.79432      9.70275        -0.001109     -0.002921     -0.000305
      7.01084      5.80382      9.64062        -0.002699     -0.014113      0.004194
      1.50275      5.78903      9.62180        -0.002133      0.004510      0.003244
      2.74740      8.95194     11.53638         0.041638     -0.022509     -0.032914
      4.40806      5.62172      9.51024        -0.008743      0.014539     -0.003421
      4.14361      7.63521     11.16842         0.211007      0.095247      0.158580
      3.62553      8.20947     14.29296        -0.100652      0.090343      0.056266
      3.26521      8.53455     13.23660        -0.057645      0.034472     -0.016963
 -----------------------------------------------------------------------------------
    total drift:                               -0.070201      0.002870      0.030236


--------------------------------------------------------------------------------------------------------



  FREE ENERGIE OF THE ION-ELECTRON SYSTEM (eV)
  ---------------------------------------------------
  free  energy   TOTEN  =      -911.55705506 eV

  energy  without entropy=     -911.55705506  energy(sigma->0) =     -911.55705506
 
 d Force =-0.1863611E-01[-0.186E-01,-0.186E-01]  d Energy =-0.1851554E-01-0.121E-03
 d Force =-0.5477687E+02[-0.546E+02,-0.550E+02]  d Ewald  =-0.5477623E+02-0.636E-03


--------------------------------------------------------------------------------------------------------


    POTLOK:  cpu time    3.78: real time    4.15


--------------------------------------------------------------------------------------------------------


 stress matrix after NEB project (eV)
    -72.49709     -0.10684     -0.64042
     -0.10684   -124.95522      2.19978
     -0.64040      2.19976    -66.29289
  FORCES: max atom, RMS     0.280612    0.031913
  FORCE total and by dimension    0.337731    0.211007
  Stress total and by dimension  158.980825  124.955221
 Quasi-Newton relaxation of ions (Broydens 2nd method)
  g(Force)  = 0.110E-02   g(Stress)= 0.000E+00

 retain information from N=  1 steps
 eigenvalues of (default step * inverse Hessian matrix)
  average eigenvalue of G=   1.3035
 eigenvalue spectrum of G is  1.3035


--------------------------------------------------------------------------------------------------------


 writing wavefunctions
     LOOP+:  cpu time  156.80: real time  202.81
    4ORBIT:  cpu time    0.00: real time    0.00
 


 total charge     
 
# of ion     s       p       d       f       tot
------------------------------------------------
  1        1.992   5.764   0.872   0.774   9.402
  2        1.992   5.764   0.872   0.774   9.402
  3        1.992   5.764   0.872   0.774   9.401
  4        1.992   5.764   0.872   0.773   9.401
  5        1.992   5.764   0.872   0.774   9.401
  6        1.992   5.764   0.872   0.775   9.403
  7        1.994   5.819   0.907   0.723   9.443
  8        1.994   5.819   0.904   0.722   9.438
  9        1.993   5.819   0.903   0.722   9.437
 10        1.994   5.819   0.906   0.723   9.442
 11        1.993   5.818   0.901   0.722   9.434
 12        1.993   5.818   0.902   0.722   9.436
 13        1.995   5.820   0.915   0.726   9.455
 14        1.994   5.820   0.911   0.724   9.449
 15        1.995   5.820   0.914   0.726   9.454
 16        1.995   5.820   0.912   0.725   9.451
 17        1.994   5.820   0.910   0.724   9.448
 18        1.995   5.821   0.916   0.726   9.458
 19        1.994   5.819   0.911   0.725   9.449
 20        1.995   5.820   0.917   0.726   9.458
 21        1.995   5.820   0.916   0.726   9.456
 22        1.994   5.819   0.915   0.726   9.454
 23        1.996   5.822   0.930   0.730   9.478
 24        1.996   5.822   0.927   0.729   9.475
 25        1.993   5.817   0.915   0.724   9.450
 26        1.994   5.819   0.917   0.726   9.456
 27        1.994   5.816   0.919   0.733   9.462
 28        1.996   5.815   0.933   0.735   9.479
 29        1.994   5.818   0.917   0.727   9.454
 30        1.992   5.815   0.903   0.722   9.432
 31        2.003   5.774   1.012   0.773   9.563
 32        2.002   5.783   1.000   0.783   9.567
 33        2.002   5.781   0.994   0.765   9.542
 34        1.992   5.797   0.938   0.753   9.480
 35        2.002   5.780   0.996   0.772   9.550
 36        2.002   5.781   1.005   0.789   9.577
 37        1.600   3.384   0.000   0.000   4.984
 38        1.600   3.384   0.000   0.000   4.985
 39        1.600   3.384   0.000   0.000   4.984
 40        1.600   3.384   0.000   0.000   4.985
 41        1.600   3.384   0.000   0.000   4.985
 42        1.600   3.384   0.000   0.000   4.985
 43        1.600   3.384   0.000   0.000   4.984
 44        1.600   3.384   0.000   0.000   4.984
 45        1.600   3.384   0.000   0.000   4.984
 46        1.600   3.384   0.000   0.000   4.984
 47        1.600   3.384   0.000   0.000   4.985
 48        1.600   3.384   0.000   0.000   4.985
 49        1.597   3.458   0.000   0.000   5.055
 50        1.596   3.456   0.000   0.000   5.052
 51        1.596   3.457   0.000   0.000   5.053
 52        1.597   3.456   0.000   0.000   5.053
 53        1.597   3.457   0.000   0.000   5.054
 54        1.597   3.456   0.000   0.000   5.052
 55        1.597   3.456   0.000   0.000   5.053
 56        1.597   3.458   0.000   0.000   5.055
 57        1.596   3.456   0.000   0.000   5.053
 58        1.596   3.456   0.000   0.000   5.052
 59        1.596   3.456   0.000   0.000   5.052
 60        1.596   3.455   0.000   0.000   5.052
 61        1.599   3.469   0.000   0.000   5.067
 62        1.598   3.464   0.000   0.000   5.062
 63        1.598   3.466   0.000   0.000   5.064
 64        1.598   3.465   0.000   0.000   5.063
 65        1.598   3.464   0.000   0.000   5.062
 66        1.598   3.465   0.000   0.000   5.063
 67        1.598   3.468   0.000   0.000   5.066
 68        1.598   3.464   0.000   0.000   5.062
 69        1.598   3.467   0.000   0.000   5.066
 70        1.598   3.466   0.000   0.000   5.064
 71        1.598   3.467   0.000   0.000   5.065
 72        1.598   3.464   0.000   0.000   5.061
 73        1.597   3.459   0.000   0.000   5.057
 74        1.597   3.453   0.000   0.000   5.051
 75        1.597   3.465   0.000   0.000   5.062
 76        1.597   3.452   0.000   0.000   5.049
 77        1.598   3.456   0.000   0.000   5.054
 78        1.597   3.457   0.000   0.000   5.055
 79        1.598   3.458   0.000   0.000   5.056
 80        1.597   3.455   0.000   0.000   5.052
 81        1.597   3.457   0.000   0.000   5.054
 82        1.598   3.454   0.000   0.000   5.051
 83        1.597   3.453   0.000   0.000   5.050
 84        1.597   3.453   0.000   0.000   5.050
 85        1.599   3.481   0.000   0.000   5.080
 86        1.599   3.475   0.000   0.000   5.075
 87        1.597   3.467   0.000   0.000   5.065
 88        1.599   3.480   0.000   0.000   5.078
 89        1.599   3.479   0.000   0.000   5.078
 90        1.599   3.468   0.000   0.000   5.068
 91        1.599   3.481   0.000   0.000   5.080
 92        1.599   3.475   0.000   0.000   5.074
 93        1.598   3.476   0.000   0.000   5.074
 94        1.599   3.477   0.000   0.000   5.076
 95        1.599   3.476   0.000   0.000   5.075
 96        1.598   3.471   0.000   0.000   5.069
 97        1.600   3.409   0.000   0.000   5.009
 98        1.592   3.412   0.000   0.000   5.004
 99        1.606   3.430   0.000   0.000   5.036
100        1.601   3.416   0.000   0.000   5.018
101        1.603   3.414   0.000   0.000   5.017
102        1.601   3.411   0.000   0.000   5.012
103        1.601   3.416   0.000   0.000   5.018
104        1.603   3.415   0.000   0.000   5.018
105        1.601   3.415   0.000   0.000   5.017
106        1.600   3.415   0.000   0.000   5.016
107        1.603   3.419   0.000   0.000   5.022
108        0.775   0.679   8.022   0.000   9.476
109        1.609   3.426   0.000   0.000   5.035
110        1.614   3.340   0.000   0.000   4.955
111        1.639   3.545   0.000   0.000   5.184
112        0.965   1.589   0.000   0.000   2.554
------------------------------------------------
tot      191.924 465.941  41.122  26.691 725.677

 


 magnetization (x)
 
# of ion     s       p       d       f       tot
------------------------------------------------
  1       -0.000   0.000   0.000   0.000  -0.000
  2       -0.000  -0.000  -0.000  -0.000  -0.000
  3        0.000  -0.000  -0.000   0.000   0.000
  4       -0.000   0.000  -0.000  -0.000  -0.000
  5        0.000  -0.000  -0.000   0.000   0.000
  6       -0.000   0.000   0.000  -0.000  -0.000
  7        0.000   0.000  -0.000   0.000   0.000
  8        0.000   0.000   0.000   0.000   0.000
  9        0.000  -0.000   0.000   0.000   0.000
 10        0.000   0.000  -0.000  -0.000  -0.000
 11        0.000  -0.000  -0.000   0.000   0.000
 12       -0.000   0.000  -0.000   0.000  -0.000
 13       -0.000  -0.000   0.000   0.000   0.000
 14        0.000   0.000   0.000   0.000   0.000
 15       -0.000   0.000  -0.000   0.000  -0.000
 16        0.000  -0.000  -0.000   0.000   0.000
 17        0.000  -0.000  -0.000   0.000   0.000
 18        0.000  -0.000  -0.000   0.000   0.000
 19        0.000  -0.000   0.000  -0.000   0.000
 20        0.000  -0.000   0.000   0.000   0.000
 21        0.000   0.000  -0.000  -0.000   0.000
 22       -0.000   0.000   0.000   0.000   0.000
 23       -0.000   0.000   0.000   0.000  -0.000
 24       -0.000   0.000   0.000   0.000  -0.000
 25       -0.000   0.000   0.000   0.000   0.000
 26        0.000  -0.000   0.000  -0.000   0.000
 27        0.000  -0.000  -0.000   0.000   0.000
 28        0.000  -0.000  -0.000  -0.000  -0.000
 29       -0.000  -0.000   0.000  -0.000  -0.000
 30        0.000   0.000   0.000   0.000   0.000
 31        0.000   0.000   0.000   0.000   0.000
 32        0.000  -0.000   0.000  -0.000   0.000
 33        0.000  -0.000  -0.000  -0.000  -0.000
 34        0.000  -0.000   0.000   0.000   0.000
 35        0.000  -0.000  -0.000  -0.000  -0.000
 36       -0.000  -0.000   0.000   0.000   0.000
 37        0.000  -0.000   0.000   0.000   0.000
 38        0.000   0.000   0.000   0.000   0.000
 39        0.000   0.000   0.000   0.000   0.000
 40       -0.000  -0.000   0.000   0.000  -0.000
 41        0.000  -0.000   0.000   0.000  -0.000
 42       -0.000   0.000   0.000   0.000   0.000
 43        0.000   0.000   0.000   0.000   0.000
 44       -0.000  -0.000   0.000   0.000  -0.000
 45        0.000   0.000   0.000   0.000   0.000
 46       -0.000  -0.000   0.000   0.000  -0.000
 47        0.000   0.000   0.000   0.000   0.000
 48        0.000  -0.000   0.000   0.000  -0.000
 49        0.000  -0.000   0.000   0.000  -0.000
 50        0.000   0.000   0.000   0.000   0.000
 51        0.000  -0.000   0.000   0.000  -0.000
 52        0.000   0.000   0.000   0.000   0.000
 53        0.000  -0.000   0.000   0.000  -0.000
 54       -0.000  -0.000   0.000   0.000  -0.000
 55       -0.000  -0.000   0.000   0.000  -0.000
 56       -0.000   0.000   0.000   0.000   0.000
 57       -0.000  -0.000   0.000   0.000  -0.000
 58       -0.000  -0.000   0.000   0.000  -0.000
 59       -0.000   0.000   0.000   0.000   0.000
 60        0.000   0.000   0.000   0.000   0.000
 61        0.000  -0.000   0.000   0.000  -0.000
 62        0.000   0.000   0.000   0.000   0.000
 63       -0.000  -0.000   0.000   0.000  -0.000
 64        0.000  -0.000   0.000   0.000  -0.000
 65       -0.000   0.000   0.000   0.000  -0.000
 66       -0.000  -0.000   0.000   0.000  -0.000
 67        0.000  -0.000   0.000   0.000  -0.000
 68       -0.000   0.000   0.000   0.000  -0.000
 69        0.000  -0.000   0.000   0.000  -0.000
 70        0.000  -0.000   0.000   0.000  -0.000
 71       -0.000   0.000   0.000   0.000   0.000
 72       -0.000   0.000   0.000   0.000   0.000
 73        0.000  -0.000   0.000   0.000   0.000
 74       -0.000  -0.000   0.000   0.000  -0.000
 75       -0.000   0.000   0.000   0.000   0.000
 76        0.000   0.000   0.000   0.000   0.000
 77       -0.000   0.000   0.000   0.000   0.000
 78       -0.000  -0.000   0.000   0.000  -0.000
 79       -0.000  -0.000   0.000   0.000  -0.000
 80       -0.000  -0.000   0.000   0.000  -0.000
 81        0.000  -0.000   0.000   0.000  -0.000
 82       -0.000  -0.000   0.000   0.000  -0.000
 83       -0.000  -0.000   0.000   0.000  -0.000
 84       -0.000  -0.000   0.000   0.000  -0.000
 85       -0.000  -0.000   0.000   0.000  -0.000
 86       -0.000  -0.000   0.000   0.000  -0.000
 87       -0.000  -0.000   0.000   0.000  -0.000
 88       -0.000  -0.000   0.000   0.000  -0.000
 89       -0.000   0.000   0.000   0.000   0.000
 90       -0.000  -0.000   0.000   0.000  -0.000
 91        0.000  -0.000   0.000   0.000  -0.000
 92       -0.000  -0.000   0.000   0.000  -0.000
 93        0.000   0.000   0.000   0.000   0.000
 94       -0.000  -0.000   0.000   0.000  -0.000
 95       -0.000   0.000   0.000   0.000   0.000
 96        0.000   0.000   0.000   0.000   0.000
 97       -0.000   0.000   0.000   0.000   0.000
 98        0.000   0.000   0.000   0.000   0.000
 99        0.000   0.000   0.000   0.000   0.000
100        0.000  -0.000   0.000   0.000  -0.000
101       -0.000  -0.000   0.000   0.000  -0.000
102       -0.000   0.000   0.000   0.000   0.000
103       -0.000  -0.000   0.000   0.000  -0.000
104       -0.000  -0.000   0.000   0.000  -0.000
105       -0.000   0.000   0.000   0.000   0.000
106       -0.000  -0.000   0.000   0.000  -0.000
107        0.000   0.000   0.000   0.000   0.000
108        0.000   0.000   0.000   0.000   0.000
109       -0.000  -0.000   0.000   0.000  -0.000
110       -0.000  -0.000   0.000   0.000  -0.000
111       -0.000   0.000   0.000   0.000   0.000
112       -0.000  -0.000   0.000   0.000  -0.000
------------------------------------------------
tot        0.000  -0.000   0.000   0.000   0.000

 

 total amount of memory used by VASP on root node   111233. kBytes
========================================================================

   base      :      30000. kBytes
   nonlr-proj:      13903. kBytes
   fftplans  :      26017. kBytes
   grid      :      28730. kBytes
   one-center:        933. kBytes
   wavefun   :      11650. kBytes
 
  
  
 General timing and accounting informations for this job:
 ========================================================
  
                  Total CPU time used (sec):     3361.052
                            User time (sec):     3292.622
                          System time (sec):       68.430
                         Elapsed time (sec):     3943.812
  
                   Maximum memory used (kb):      364552.
                   Average memory used (kb):           0.
  
                          Minor page faults:       389220
                          Major page faults:           10
                 Voluntary context switches:       845247
