       N       E                     dE             d eps       ncg     rms          rms(c)
DAV:   1    -0.855987771601E+03   -0.85599E+03   -0.15619E-03  3264   0.537E-02    0.753E-02
RMM:   2    -0.855987810744E+03   -0.39144E-04   -0.42775E-04  1539   0.390E-02
   1 F= -.87661705E+03 E0= -.87661705E+03  d E =-.876617E+03  mag=     2.0000
