       N       E                     dE             d eps       ncg     rms          rms(c)
DAV:   1     0.157114440829E+05    0.15711E+05   -0.34037E+05  2368   0.148E+03
DAV:   2     0.570532897901E+04   -0.10006E+05   -0.87307E+04  2496   0.393E+02
DAV:   3     0.514695234494E+03   -0.51906E+04   -0.49305E+04  3008   0.260E+02
DAV:   4    -0.944651899549E+03   -0.14593E+04   -0.13463E+04  3280   0.134E+02
DAV:   5    -0.108856985677E+04   -0.14392E+03   -0.14221E+03  3952   0.553E+01    0.157E+02
RMM:   6    -0.895160116275E+03    0.19341E+03   -0.64363E+02  3254   0.310E+01    0.102E+02
RMM:   7    -0.142924429200E+04   -0.53408E+03   -0.12477E+03  3739   0.583E+01    0.296E+02
RMM:   8    -0.927971270470E+03    0.50127E+03   -0.41938E+02  3019   0.338E+01    0.126E+02
RMM:   9    -0.110798491920E+04   -0.18001E+03   -0.48424E+02  3362   0.306E+01    0.207E+02
RMM:  10    -0.101318096370E+04    0.94804E+02   -0.49869E+02  3286   0.290E+01    0.198E+02
RMM:  11    -0.920246072521E+03    0.92935E+02   -0.13970E+02  3303   0.154E+01    0.779E+01
RMM:  12    -0.950702247008E+03   -0.30456E+02   -0.81768E+01  3248   0.120E+01    0.108E+02
RMM:  13    -0.103045667313E+04   -0.79754E+02   -0.12272E+02  3371   0.110E+01    0.208E+02
RMM:  14    -0.106434940427E+04   -0.33893E+02   -0.10553E+02  3327   0.123E+01    0.225E+02
RMM:  15    -0.949590157286E+03    0.11476E+03   -0.20490E+01  3310   0.658E+00    0.643E+01
RMM:  16    -0.946915856676E+03    0.26743E+01   -0.20196E+01  3331   0.619E+00    0.833E+01
RMM:  17    -0.949350130776E+03   -0.24343E+01   -0.19495E+01  3264   0.606E+00    0.102E+02
RMM:  18    -0.946448663816E+03    0.29015E+01   -0.96932E+00  3479   0.370E+00    0.807E+01
RMM:  19    -0.938724944424E+03    0.77237E+01   -0.73166E+00  3388   0.387E+00    0.781E+01
RMM:  20    -0.935328851716E+03    0.33961E+01   -0.40079E+00  3584   0.244E+00    0.537E+01
RMM:  21    -0.925633598681E+03    0.96953E+01   -0.85214E+00  3403   0.396E+00    0.511E+01
RMM:  22    -0.921058191148E+03    0.45754E+01   -0.38781E+00  3440   0.275E+00    0.484E+01
RMM:  23    -0.917094771943E+03    0.39634E+01   -0.30947E+00  3351   0.236E+00    0.463E+01
RMM:  24    -0.912425234032E+03    0.46695E+01   -0.41232E+00  3454   0.265E+00    0.446E+01
RMM:  25    -0.907058339905E+03    0.53669E+01   -0.30541E+00  3446   0.234E+00    0.413E+01
RMM:  26    -0.901572217545E+03    0.54861E+01   -0.31980E+00  3484   0.225E+00    0.394E+01
RMM:  27    -0.896951466075E+03    0.46208E+01   -0.23096E+00  3442   0.214E+00    0.369E+01
RMM:  28    -0.895328429951E+03    0.16230E+01   -0.13419E+00  3561   0.137E+00    0.360E+01
RMM:  29    -0.892731354330E+03    0.25971E+01   -0.10214E+00  3374   0.145E+00    0.352E+01
RMM:  30    -0.889721322218E+03    0.30100E+01   -0.19755E+00  3274   0.181E+00    0.332E+01
RMM:  31    -0.887151477351E+03    0.25698E+01   -0.18681E+00  3299   0.192E+00    0.322E+01
RMM:  32    -0.885133998820E+03    0.20175E+01   -0.15512E+00  3309   0.159E+00    0.308E+01
RMM:  33    -0.880488375972E+03    0.46456E+01   -0.47666E+00  3196   0.312E+00    0.280E+01
RMM:  34    -0.878272789139E+03    0.22156E+01   -0.40400E+00  3272   0.229E+00    0.263E+01
RMM:  35    -0.877463210174E+03    0.80958E+00   -0.12261E+00  3210   0.163E+00    0.256E+01
RMM:  36    -0.877511279708E+03   -0.48070E-01   -0.63552E-01  3412   0.688E-01    0.255E+01
RMM:  37    -0.877395873594E+03    0.11541E+00   -0.15387E-01  3650   0.463E-01    0.252E+01
RMM:  38    -0.877412416287E+03   -0.16543E-01   -0.10630E-01  3610   0.355E-01    0.250E+01
RMM:  39    -0.876933487349E+03    0.47893E+00   -0.16536E-01  3280   0.500E-01    0.244E+01
RMM:  40    -0.876992826139E+03   -0.59339E-01   -0.10031E-01  3261   0.422E-01    0.246E+01
RMM:  41    -0.875705678481E+03    0.12871E+01   -0.55119E-01  3114   0.106E+00    0.242E+01
RMM:  42    -0.875206534050E+03    0.49914E+00   -0.36023E-01  3286   0.717E-01    0.220E+01
RMM:  43    -0.875390525928E+03   -0.18399E+00   -0.58739E-02  3136   0.384E-01    0.218E+01
RMM:  44    -0.875382194352E+03    0.83316E-02   -0.32818E-02  3748   0.162E-01    0.217E+01
RMM:  45    -0.875499609591E+03   -0.11742E+00   -0.24919E-02  3256   0.194E-01    0.220E+01
RMM:  46    -0.875501711121E+03   -0.21015E-02   -0.89873E-03  3048   0.106E-01    0.220E+01
RMM:  47    -0.875512729147E+03   -0.11018E-01   -0.56547E-03  3023   0.876E-02    0.222E+01
RMM:  48    -0.875510035096E+03    0.26941E-02   -0.31701E-03  2333   0.653E-02    0.221E+01
RMM:  49    -0.875506686846E+03    0.33483E-02   -0.54850E-02  3213   0.260E-01    0.230E+01
RMM:  50    -0.875736818076E+03   -0.23013E+00   -0.16732E-02  2832   0.249E-01    0.231E+01
RMM:  51    -0.900922893958E+03   -0.25186E+02   -0.44550E+01  3190   0.790E+00    0.133E+02
RMM:  52    -0.877779045822E+03    0.23144E+02   -0.74973E+00  2911   0.417E+00    0.321E+01
RMM:  53    -0.873964214990E+03    0.38148E+01   -0.22343E+00  3043   0.220E+00    0.271E+01
RMM:  54    -0.872368005452E+03    0.15962E+01   -0.13404E+00  3256   0.131E+00    0.236E+01
RMM:  55    -0.872083530910E+03    0.28447E+00   -0.44171E-01  3222   0.819E-01    0.224E+01
RMM:  56    -0.871280993413E+03    0.80254E+00   -0.41347E+01  3179   0.742E+00    0.357E+01
RMM:  57    -0.867629045294E+03    0.36519E+01   -0.50555E+00  2756   0.436E+00    0.244E+01
RMM:  58    -0.868807276432E+03   -0.11782E+01   -0.26356E+00  3283   0.169E+00    0.238E+01
RMM:  59    -0.870371818186E+03   -0.15645E+01   -0.32115E+00  3021   0.244E+00    0.242E+01
RMM:  60    -0.871213688299E+03   -0.84187E+00   -0.22431E+00  3121   0.187E+00    0.205E+01
RMM:  61    -0.871635520718E+03   -0.42183E+00   -0.74444E+00  3174   0.362E+00    0.215E+01
RMM:  62    -0.870934934162E+03    0.70059E+00   -0.22586E+00  3072   0.203E+00    0.182E+01
RMM:  63    -0.871387894739E+03   -0.45296E+00   -0.18241E+00  3131   0.167E+00    0.182E+01
RMM:  64    -0.872320586713E+03   -0.93269E+00   -0.39351E+00  3249   0.213E+00    0.172E+01
RMM:  65    -0.872159580084E+03    0.16101E+00   -0.13110E+00  3258   0.108E+00    0.159E+01
RMM:  66    -0.871554302410E+03    0.60528E+00   -0.23181E+00  3071   0.168E+00    0.153E+01
RMM:  67    -0.871448330675E+03    0.10597E+00   -0.18659E+00  3281   0.111E+00    0.154E+01
RMM:  68    -0.871051943399E+03    0.39639E+00   -0.68679E-01  3207   0.835E-01    0.155E+01
RMM:  69    -0.871100324058E+03   -0.48381E-01   -0.30922E-01  3303   0.394E-01    0.173E+01
RMM:  70    -0.871037177511E+03    0.63147E-01   -0.95791E-02  3168   0.398E-01    0.157E+01
RMM:  71    -0.870825203464E+03    0.21197E+00   -0.26865E-01  3156   0.642E-01    0.161E+01
RMM:  72    -0.870813103307E+03    0.12100E-01   -0.57324E-02  3151   0.300E-01    0.159E+01
RMM:  73    -0.871018082243E+03   -0.20498E+00   -0.39964E-02  3098   0.272E-01    0.170E+01
RMM:  74    -0.871050374352E+03   -0.32292E-01   -0.35500E-02  3043   0.277E-01    0.159E+01
RMM:  75    -0.870950451309E+03    0.99923E-01   -0.11958E-01  3193   0.431E-01    0.156E+01
RMM:  76    -0.871013028687E+03   -0.62577E-01   -0.14332E+00  3215   0.133E+00    0.112E+01
RMM:  77    -0.871468705439E+03   -0.45568E+00   -0.33760E-01  3223   0.676E-01    0.100E+01
RMM:  78    -0.872229732714E+03   -0.76103E+00   -0.16615E+00  3212   0.134E+00    0.152E+01
RMM:  79    -0.872475713813E+03   -0.24598E+00   -0.50793E-01  3172   0.529E-01    0.158E+01
RMM:  80    -0.872567008212E+03   -0.91294E-01   -0.15594E-01  3165   0.291E-01    0.155E+01
RMM:  81    -0.872466117261E+03    0.10089E+00   -0.32821E-01  3188   0.641E-01    0.143E+01
RMM:  82    -0.872461421243E+03    0.46960E-02   -0.32146E-01  3124   0.583E-01    0.152E+01
RMM:  83    -0.872160835609E+03    0.30059E+00   -0.11593E-01  3165   0.338E-01    0.152E+01
RMM:  84    -0.872158629282E+03    0.22063E-02   -0.19885E-02  2853   0.113E-01    0.152E+01
RMM:  85    -0.872150743464E+03    0.78858E-02   -0.37753E-03  2625   0.618E-02    0.152E+01
RMM:  86    -0.872841782057E+03   -0.69104E+00   -0.99289E-01  3201   0.118E+00    0.146E+01
RMM:  87    -0.872979018319E+03   -0.13724E+00   -0.37218E-01  3177   0.630E-01    0.142E+01
RMM:  88    -0.872750940476E+03    0.22808E+00   -0.17021E-01  3193   0.397E-01    0.138E+01
RMM:  89    -0.872631626815E+03    0.11931E+00   -0.86217E-02  3168   0.206E-01    0.136E+01
RMM:  90    -0.872655990280E+03   -0.24363E-01   -0.10897E-02  2813   0.103E-01    0.136E+01
RMM:  91    -0.872984044214E+03   -0.32805E+00   -0.15279E-01  2991   0.491E-01    0.139E+01
RMM:  92    -0.872847985584E+03    0.13606E+00   -0.19332E-01  3114   0.461E-01    0.143E+01
RMM:  93    -0.872775424234E+03    0.72561E-01   -0.12095E-01  3134   0.227E-01    0.145E+01
RMM:  94    -0.872752207122E+03    0.23217E-01   -0.18545E-02  2534   0.865E-02    0.145E+01
RMM:  95    -0.872729954599E+03    0.22253E-01   -0.18037E-02  2967   0.134E-01    0.147E+01
RMM:  96    -0.873169432838E+03   -0.43948E+00   -0.15147E+00  3103   0.120E+00    0.131E+01
RMM:  97    -0.873171476780E+03   -0.20439E-02   -0.36135E-01  3164   0.567E-01    0.130E+01
RMM:  98    -0.872973271399E+03    0.19821E+00   -0.25917E-01  3203   0.479E-01    0.128E+01
RMM:  99    -0.872869591681E+03    0.10368E+00   -0.12650E-01  3201   0.259E-01    0.125E+01
RMM: 100    -0.872741894013E+03    0.12770E+00   -0.19263E-01  3195   0.398E-01
   1 F= -.89353607E+03 E0= -.89352725E+03  d E =-.893536E+03  mag=    -2.0951
       N       E                     dE             d eps       ncg     rms          rms(c)
DAV:   1    -0.873142209466E+03   -0.27262E+00   -0.15063E+01  2944   0.493E+00    0.123E+01
RMM:   2    -0.896634125661E+03   -0.23492E+02   -0.29539E+01  3304   0.572E+00    0.924E+01
RMM:   3    -0.876261270939E+03    0.20373E+02   -0.67751E+00  2870   0.509E+00    0.141E+01
RMM:   4    -0.875146004674E+03    0.11153E+01   -0.34093E+00  3202   0.222E+00    0.103E+01
RMM:   5    -0.873298436124E+03    0.18476E+01   -0.55132E+00  3197   0.279E+00    0.511E+00
RMM:   6    -0.873554468842E+03   -0.25603E+00   -0.76776E-01  3230   0.751E-01    0.830E+00
RMM:   7    -0.873661909822E+03   -0.10744E+00   -0.46243E-01  3116   0.651E-01    0.123E+01
RMM:   8    -0.873303825684E+03    0.35808E+00   -0.86739E-02  2841   0.465E-01    0.578E+00
RMM:   9    -0.873577213835E+03   -0.27339E+00   -0.11390E-01  2938   0.342E-01    0.859E+00
RMM:  10    -0.873566746485E+03    0.10467E-01   -0.39969E-02  2718   0.254E-01    0.868E+00
RMM:  11    -0.873523377699E+03    0.43369E-01   -0.11669E-02  2866   0.147E-01    0.867E+00
RMM:  12    -0.873346658997E+03    0.17672E+00   -0.71110E-02  2995   0.298E-01    0.351E+00
RMM:  13    -0.873537371354E+03   -0.19071E+00   -0.33285E-01  3023   0.621E-01    0.806E+00
RMM:  14    -0.873429252597E+03    0.10812E+00   -0.21925E-01  3173   0.493E-01    0.478E+00
RMM:  15    -0.873457389638E+03   -0.28137E-01   -0.36790E-02  2707   0.295E-01    0.494E+00
RMM:  16    -0.873451880880E+03    0.55088E-02   -0.43822E-02  2828   0.284E-01    0.534E+00
RMM:  17    -0.873454451875E+03   -0.25710E-02   -0.16827E-02  2563   0.228E-01    0.347E+00
RMM:  18    -0.873482467794E+03   -0.28016E-01   -0.18433E-02  2582   0.185E-01    0.405E+00
RMM:  19    -0.873456501521E+03    0.25966E-01   -0.25327E-02  2941   0.181E-01    0.360E+00
RMM:  20    -0.873428508557E+03    0.27993E-01   -0.27543E-02  2970   0.184E-01    0.134E+00
RMM:  21    -0.873451457925E+03   -0.22949E-01   -0.71969E-03  2361   0.133E-01    0.196E+00
RMM:  22    -0.873443695434E+03    0.77625E-02   -0.74176E-03  2454   0.105E-01    0.145E+00
RMM:  23    -0.873443205088E+03    0.49035E-03   -0.10257E-02  2636   0.876E-02    0.237E+00
RMM:  24    -0.873432435402E+03    0.10770E-01   -0.37935E-03  2094   0.890E-02    0.257E+00
RMM:  25    -0.873422653998E+03    0.97814E-02   -0.13654E-03  1936   0.581E-02    0.186E+00
RMM:  26    -0.873430413673E+03   -0.77597E-02   -0.16533E-03  1983   0.670E-02    0.184E+00
RMM:  27    -0.873431579105E+03   -0.11654E-02   -0.52208E-03  2179   0.615E-02    0.247E+00
RMM:  28    -0.873426372212E+03    0.52069E-02   -0.53220E-03  2201   0.618E-02    0.264E+00
RMM:  29    -0.873421818530E+03    0.45537E-02   -0.24498E-03  1829   0.505E-02    0.277E+00
RMM:  30    -0.873418596717E+03    0.32218E-02   -0.51634E-04  1638   0.363E-02    0.268E+00
RMM:  31    -0.873420202568E+03   -0.16059E-02   -0.15293E-03  1565   0.311E-02    0.297E+00
RMM:  32    -0.873418906186E+03    0.12964E-02   -0.29617E-04  1556   0.299E-02    0.326E+00
RMM:  33    -0.873414067478E+03    0.48387E-02   -0.28875E-04  1525   0.296E-02    0.303E+00
RMM:  34    -0.873416169469E+03   -0.21020E-02   -0.83326E-04  1517   0.222E-02    0.319E+00
RMM:  35    -0.873413946970E+03    0.22225E-02   -0.20287E-03  1568   0.265E-02    0.311E+00
RMM:  36    -0.873415670565E+03   -0.17236E-02   -0.20078E-03  1638   0.265E-02    0.340E+00
RMM:  37    -0.873413134107E+03    0.25365E-02   -0.48418E-04  1550   0.268E-02    0.343E+00
RMM:  38    -0.873412324602E+03    0.80951E-03   -0.64601E-04  1497   0.196E-02    0.346E+00
RMM:  39    -0.873411901413E+03    0.42319E-03   -0.17004E-04  1497   0.189E-02    0.344E+00
RMM:  40    -0.873413640677E+03   -0.17393E-02   -0.83661E-04  1510   0.187E-02    0.359E+00
RMM:  41    -0.873412752148E+03    0.88853E-03   -0.88871E-04  1531   0.163E-02    0.364E+00
RMM:  42    -0.873411852856E+03    0.89929E-03   -0.26960E-04  1495   0.139E-02    0.362E+00
RMM:  43    -0.873411349810E+03    0.50305E-03   -0.25103E-04  1489   0.125E-02    0.359E+00
RMM:  44    -0.873411607367E+03   -0.25756E-03   -0.66162E-05  1484   0.106E-02    0.359E+00
RMM:  45    -0.873411629082E+03   -0.21715E-04   -0.46038E-05  1479   0.908E-03
   2 F= -.89420792E+03 E0= -.89418926E+03  d E =-.671858E+00  mag=    -0.4128
       N       E                     dE             d eps       ncg     rms          rms(c)
DAV:   1    -0.873368416667E+03    0.43191E-01   -0.13135E+02  2624   0.124E+01    0.806E+00
RMM:   2    -0.874895271470E+03   -0.15269E+01   -0.77295E+00  3128   0.428E+00    0.113E+01
RMM:   3    -0.874434485375E+03    0.46079E+00   -0.77891E-01  2943   0.149E+00    0.782E+00
RMM:   4    -0.874285163919E+03    0.14932E+00   -0.10837E+00  3217   0.120E+00    0.899E+00
RMM:   5    -0.874219558326E+03    0.65606E-01   -0.25459E+00  3175   0.169E+00    0.932E+00
RMM:   6    -0.874215228113E+03    0.43302E-02   -0.34346E-01  3210   0.688E-01    0.874E+00
RMM:   7    -0.874155825169E+03    0.59403E-01   -0.87490E-02  3577   0.227E-01    0.850E+00
RMM:   8    -0.874097248182E+03    0.58577E-01   -0.16715E-02  3437   0.121E-01    0.808E+00
RMM:   9    -0.873997410483E+03    0.99838E-01   -0.32779E-01  3168   0.619E-01    0.877E+00
RMM:  10    -0.873898018965E+03    0.99392E-01   -0.27717E-01  3154   0.618E-01    0.400E+00
RMM:  11    -0.874118632365E+03   -0.22061E+00   -0.65928E-02  3038   0.314E-01    0.737E+00
RMM:  12    -0.874031449659E+03    0.87183E-01   -0.50559E-02  3001   0.245E-01    0.717E+00
RMM:  13    -0.873897487022E+03    0.13396E+00   -0.71736E-02  2939   0.223E-01    0.387E+00
RMM:  14    -0.873898509149E+03   -0.10221E-02   -0.46495E-02  3073   0.183E-01    0.537E+00
RMM:  15    -0.873869022258E+03    0.29487E-01   -0.12744E-02  2554   0.210E-01    0.499E+00
RMM:  16    -0.873827228918E+03    0.41793E-01   -0.13709E-02  2598   0.173E-01    0.380E+00
RMM:  17    -0.873837116009E+03   -0.98871E-02   -0.41498E-03  2552   0.599E-02    0.384E+00
RMM:  18    -0.873835398633E+03    0.17174E-02   -0.54448E-04  1906   0.380E-02    0.368E+00
RMM:  19    -0.873837120985E+03   -0.17224E-02   -0.39069E-03  2316   0.897E-02    0.303E+00
RMM:  20    -0.873839419398E+03   -0.22984E-02   -0.81838E-03  2768   0.101E-01    0.295E+00
RMM:  21    -0.873822715851E+03    0.16704E-01   -0.14845E-02  2734   0.139E-01    0.269E+00
RMM:  22    -0.873805106890E+03    0.17609E-01   -0.21005E-02  2866   0.126E-01    0.288E+00
RMM:  23    -0.873766951410E+03    0.38155E-01   -0.69791E-02  2876   0.277E-01    0.183E+00
RMM:  24    -0.873795265524E+03   -0.28314E-01   -0.13912E-01  3163   0.318E-01    0.782E+00
RMM:  25    -0.873722146028E+03    0.73119E-01   -0.22202E-02  2547   0.212E-01    0.548E+00
RMM:  26    -0.873743610814E+03   -0.21465E-01   -0.35295E-02  2492   0.199E-01    0.643E+00
RMM:  27    -0.873736118714E+03    0.74921E-02   -0.89292E-03  2421   0.151E-01    0.603E+00
RMM:  28    -0.873740758874E+03   -0.46402E-02   -0.12328E-02  2413   0.122E-01    0.544E+00
RMM:  29    -0.873735135519E+03    0.56234E-02   -0.41275E-03  2311   0.613E-02    0.568E+00
RMM:  30    -0.873728787629E+03    0.63479E-02   -0.68741E-03  2171   0.419E-02    0.535E+00
RMM:  31    -0.873727664252E+03    0.11234E-02   -0.73164E-03  1913   0.578E-02    0.507E+00
RMM:  32    -0.873728976641E+03   -0.13124E-02   -0.13062E-03  1637   0.416E-02    0.449E+00
RMM:  33    -0.873738705434E+03   -0.97288E-02   -0.49627E-04  1591   0.348E-02    0.471E+00
RMM:  34    -0.873737929171E+03    0.77626E-03   -0.18715E-04  1499   0.222E-02    0.472E+00
RMM:  35    -0.873726258051E+03    0.11671E-01   -0.14890E-03  1870   0.370E-02    0.261E+00
RMM:  36    -0.873743868076E+03   -0.17610E-01   -0.12113E-03  1983   0.700E-02    0.279E+00
RMM:  37    -0.873749381356E+03   -0.55133E-02   -0.11106E-02  2377   0.864E-02    0.162E+00
RMM:  38    -0.873772240801E+03   -0.22859E-01   -0.39716E-02  2896   0.146E-01    0.213E+00
RMM:  39    -0.873776594078E+03   -0.43533E-02   -0.22117E-02  2709   0.102E-01    0.182E+00
RMM:  40    -0.873783698657E+03   -0.71046E-02   -0.15943E-02  2670   0.841E-02    0.189E+00
RMM:  41    -0.873784177129E+03   -0.47847E-03   -0.52691E-03  2136   0.460E-02    0.190E+00
RMM:  42    -0.873782878006E+03    0.12991E-02   -0.28484E-03  1527   0.334E-02    0.190E+00
RMM:  43    -0.873795966967E+03   -0.13089E-01   -0.80239E-03  2604   0.959E-02    0.247E+00
RMM:  44    -0.873792772659E+03    0.31943E-02   -0.59378E-03  2523   0.761E-02    0.202E+00
RMM:  45    -0.873791681191E+03    0.10915E-02   -0.16476E-03  1804   0.454E-02    0.196E+00
RMM:  46    -0.873791248230E+03    0.43296E-03   -0.19424E-03  1750   0.345E-02    0.198E+00
RMM:  47    -0.873790870326E+03    0.37790E-03   -0.11598E-02  2504   0.120E-01    0.295E+00
RMM:  48    -0.873790385218E+03    0.48511E-03   -0.81052E-03  2221   0.110E-01    0.293E+00
RMM:  49    -0.873789228243E+03    0.11570E-02   -0.23889E-03  2109   0.502E-02    0.295E+00
RMM:  50    -0.873784689377E+03    0.45389E-02   -0.42379E-04  1624   0.384E-02    0.287E+00
RMM:  51    -0.873785733572E+03   -0.10442E-02   -0.39232E-04  1564   0.246E-02    0.276E+00
RMM:  52    -0.873780997431E+03    0.47361E-02   -0.10225E-03  1956   0.495E-02    0.252E+00
RMM:  53    -0.873788575268E+03   -0.75778E-02   -0.15482E-03  1794   0.494E-02    0.259E+00
RMM:  54    -0.873790348308E+03   -0.17730E-02   -0.99185E-04  1774   0.317E-02    0.257E+00
RMM:  55    -0.873782960323E+03    0.73880E-02   -0.15183E-03  1916   0.605E-02    0.254E+00
RMM:  56    -0.873770885688E+03    0.12075E-01   -0.16966E-02  2762   0.119E-01    0.244E+00
RMM:  57    -0.873771259803E+03   -0.37412E-03   -0.44195E-03  2209   0.545E-02    0.240E+00
RMM:  58    -0.873771516286E+03   -0.25648E-03   -0.12144E-03  1702   0.334E-02    0.238E+00
RMM:  59    -0.873774116260E+03   -0.26000E-02   -0.26048E-04  1569   0.350E-02    0.231E+00
RMM:  60    -0.873778476628E+03   -0.43604E-02   -0.19705E-03  1999   0.453E-02    0.227E+00
RMM:  61    -0.873778748999E+03   -0.27237E-03   -0.41808E-04  1575   0.277E-02    0.226E+00
RMM:  62    -0.873777878753E+03    0.87025E-03   -0.32326E-04  1548   0.240E-02    0.217E+00
RMM:  63    -0.873779817049E+03   -0.19383E-02   -0.17766E-04  1523   0.274E-02    0.221E+00
RMM:  64    -0.873779768318E+03    0.48731E-04   -0.72875E-05  1484   0.177E-02
   3 F= -.89457774E+03 E0= -.89455872E+03  d E =-.104168E+01  mag=    -0.7922
       N       E                     dE             d eps       ncg     rms          rms(c)
DAV:   1    -0.873855390572E+03   -0.75574E-01   -0.23706E+01  2592   0.588E+00    0.316E+00
RMM:   2    -0.874563216093E+03   -0.70783E+00   -0.28198E+00  3179   0.230E+00    0.574E+00
RMM:   3    -0.874204022009E+03    0.35919E+00   -0.39194E-01  3066   0.822E-01    0.929E+00
RMM:   4    -0.874109796601E+03    0.94225E-01   -0.11222E-01  3405   0.377E-01    0.869E+00
RMM:   5    -0.874078900438E+03    0.30896E-01   -0.31708E-02  3482   0.149E-01    0.835E+00
RMM:   6    -0.874165287202E+03   -0.86387E-01   -0.13131E-01  3398   0.185E-01    0.852E+00
RMM:   7    -0.874178625121E+03   -0.13338E-01   -0.28171E-01  3264   0.214E-01    0.816E+00
RMM:   8    -0.874240428673E+03   -0.61804E-01   -0.90102E-02  3170   0.225E-01    0.803E+00
RMM:   9    -0.874258922592E+03   -0.18494E-01   -0.13442E-01  3249   0.163E-01    0.781E+00
RMM:  10    -0.874257103086E+03    0.18195E-02   -0.49771E-02  3202   0.127E-01    0.759E+00
RMM:  11    -0.874280517722E+03   -0.23415E-01   -0.34168E-01  2998   0.355E-01    0.698E+00
RMM:  12    -0.874315902707E+03   -0.35385E-01   -0.26301E-02  2913   0.144E-01    0.687E+00
RMM:  13    -0.874344801703E+03   -0.28899E-01   -0.17464E-01  2978   0.294E-01    0.652E+00
RMM:  14    -0.874339536596E+03    0.52651E-02   -0.40016E-01  3135   0.368E-01    0.628E+00
RMM:  15    -0.874366971875E+03   -0.27435E-01   -0.30232E-01  3087   0.318E-01    0.591E+00
RMM:  16    -0.874361040655E+03    0.59312E-02   -0.12285E-01  2942   0.204E-01    0.566E+00
RMM:  17    -0.874334762027E+03    0.26279E-01   -0.20199E-02  2667   0.103E-01    0.556E+00
RMM:  18    -0.874292538859E+03    0.42223E-01   -0.23726E-02  2767   0.133E-01    0.544E+00
RMM:  19    -0.874186122534E+03    0.10642E+00   -0.38540E-01  2925   0.460E-01    0.495E+00
RMM:  20    -0.874194076791E+03   -0.79543E-02   -0.32590E-02  2568   0.119E-01    0.482E+00
RMM:  21    -0.874193780889E+03    0.29590E-03   -0.40613E-03  2368   0.528E-02    0.483E+00
RMM:  22    -0.874181315923E+03    0.12465E-01   -0.95298E-03  2503   0.827E-02    0.481E+00
RMM:  23    -0.874114795206E+03    0.66521E-01   -0.56102E-02  2926   0.222E-01    0.454E+00
RMM:  24    -0.874102805253E+03    0.11990E-01   -0.32464E-01  3021   0.572E-01    0.719E+00
RMM:  25    -0.874023483366E+03    0.79322E-01   -0.91728E-02  3093   0.356E-01    0.101E+00
RMM:  26    -0.874052966012E+03   -0.29483E-01   -0.10133E-01  3089   0.260E-01    0.772E-01
RMM:  27    -0.874054410117E+03   -0.14441E-02   -0.33840E-02  2834   0.124E-01    0.177E+00
RMM:  28    -0.874042827404E+03    0.11583E-01   -0.44002E-02  2583   0.125E-01    0.771E-01
RMM:  29    -0.874046236983E+03   -0.34096E-02   -0.38870E-02  2499   0.119E-01    0.214E+00
RMM:  30    -0.874033819148E+03    0.12418E-01   -0.12065E-02  2244   0.748E-02    0.847E-01
RMM:  31    -0.874056129212E+03   -0.22310E-01   -0.32096E-02  2521   0.121E-01    0.437E+00
RMM:  32    -0.874014503985E+03    0.41625E-01   -0.45766E-02  2678   0.172E-01    0.277E+00
RMM:  33    -0.874023205110E+03   -0.87011E-02   -0.28041E-03  1936   0.610E-02    0.241E+00
RMM:  34    -0.874027699032E+03   -0.44939E-02   -0.97166E-04  1723   0.410E-02    0.213E+00
RMM:  35    -0.874040020495E+03   -0.12321E-01   -0.20741E-03  1857   0.551E-02    0.301E+00
RMM:  36    -0.874042606280E+03   -0.25858E-02   -0.12844E-02  2575   0.124E-01    0.208E+00
RMM:  37    -0.874062483205E+03   -0.19877E-01   -0.89986E-02  2965   0.287E-01    0.135E+00
RMM:  38    -0.874077982173E+03   -0.15499E-01   -0.11923E-01  2941   0.215E-01    0.280E+00
RMM:  39    -0.874071569513E+03    0.64127E-02   -0.11822E-02  2360   0.860E-02    0.300E+00
RMM:  40    -0.874068851210E+03    0.27183E-02   -0.16251E-03  1969   0.479E-02    0.310E+00
RMM:  41    -0.874068834740E+03    0.16470E-04   -0.10071E-03  1607   0.363E-02    0.324E+00
RMM:  42    -0.874069464709E+03   -0.62997E-03   -0.36326E-03  1675   0.482E-02    0.348E+00
RMM:  43    -0.874067244487E+03    0.22202E-02   -0.94077E-04  1546   0.399E-02    0.339E+00
RMM:  44    -0.874059140442E+03    0.81040E-02   -0.48794E-03  1878   0.623E-02    0.241E+00
RMM:  45    -0.874065548296E+03   -0.64079E-02   -0.23127E-02  2395   0.982E-02    0.730E-01
RMM:  46    -0.874081215334E+03   -0.15667E-01   -0.15690E-02  2276   0.900E-02    0.811E-01
RMM:  47    -0.874106769170E+03   -0.25554E-01   -0.22489E-02  2497   0.153E-01    0.416E+00
RMM:  48    -0.874093397607E+03    0.13372E-01   -0.61092E-03  2251   0.115E-01    0.429E+00
RMM:  49    -0.874080775143E+03    0.12622E-01   -0.69983E-04  1824   0.642E-02    0.341E+00
RMM:  50    -0.874077233135E+03    0.35420E-02   -0.18322E-03  2078   0.533E-02    0.788E-01
RMM:  51    -0.874096546107E+03   -0.19313E-01   -0.10403E-02  2114   0.109E-01    0.703E-01
RMM:  52    -0.874101694411E+03   -0.51483E-02   -0.17701E-02  2114   0.787E-02    0.144E+00
RMM:  53    -0.874100851538E+03    0.84287E-03   -0.96226E-04  1824   0.398E-02    0.155E+00
RMM:  54    -0.874099856663E+03    0.99487E-03   -0.23013E-04  1530   0.316E-02    0.164E+00
RMM:  55    -0.874099624083E+03    0.23258E-03   -0.15064E-03  1800   0.351E-02    0.103E+00
RMM:  56    -0.874101608622E+03   -0.19845E-02   -0.82010E-04  1676   0.367E-02    0.715E-01
RMM:  57    -0.874099333209E+03    0.22754E-02   -0.52340E-03  2185   0.708E-02    0.871E-01
RMM:  58    -0.874099450898E+03   -0.11769E-03   -0.12440E-03  1814   0.481E-02    0.686E-01
RMM:  59    -0.874100556776E+03   -0.11059E-02   -0.52348E-04  1529   0.328E-02    0.790E-01
RMM:  60    -0.874100482426E+03    0.74350E-04   -0.39932E-04  1476   0.192E-02
   4 F= -.89489581E+03 E0= -.89488251E+03  d E =-.318071E+00  mag=    -1.3300
       N       E                     dE             d eps       ncg     rms          rms(c)
DAV:   1    -0.874100248081E+03    0.30869E-03   -0.19602E-03  2704   0.555E-02    0.983E-01
RMM:   2    -0.874132267024E+03   -0.32019E-01   -0.61418E-02  2897   0.309E-01    0.570E+00
RMM:   3    -0.874083892586E+03    0.48374E-01   -0.22914E-02  2625   0.272E-01    0.154E+00
RMM:   4    -0.874114055599E+03   -0.30163E-01   -0.18909E-02  2779   0.144E-01    0.128E+00
RMM:   5    -0.874111768186E+03    0.22874E-02   -0.76088E-03  2262   0.948E-02    0.117E+00
RMM:   6    -0.874111960941E+03   -0.19276E-03   -0.81586E-03  2564   0.721E-02    0.562E-01
RMM:   7    -0.874119764205E+03   -0.78033E-02   -0.29482E-02  2621   0.109E-01    0.863E-01
RMM:   8    -0.874122093057E+03   -0.23289E-02   -0.13755E-02  2243   0.661E-02    0.563E-01
RMM:   9    -0.874127842362E+03   -0.57493E-02   -0.23476E-02  2248   0.818E-02    0.122E+00
RMM:  10    -0.874125688231E+03    0.21541E-02   -0.26855E-03  1815   0.432E-02    0.121E+00
RMM:  11    -0.874123535217E+03    0.21530E-02   -0.37256E-03  1917   0.547E-02    0.151E+00
RMM:  12    -0.874130255113E+03   -0.67199E-02   -0.40906E-03  2052   0.615E-02    0.234E+00
RMM:  13    -0.874123863108E+03    0.63920E-02   -0.84539E-04  1791   0.471E-02    0.227E+00
RMM:  14    -0.874117506796E+03    0.63563E-02   -0.29003E-03  2162   0.573E-02    0.104E+00
RMM:  15    -0.874125052121E+03   -0.75453E-02   -0.29560E-03  2400   0.688E-02    0.456E-01
RMM:  16    -0.874127837196E+03   -0.27851E-02   -0.60754E-04  1782   0.458E-02    0.492E-01
RMM:  17    -0.874128437162E+03   -0.59997E-03   -0.44750E-04  1569   0.316E-02    0.444E-01
RMM:  18    -0.874129267183E+03   -0.83002E-03   -0.92284E-04  1680   0.345E-02    0.363E-01
RMM:  19    -0.874129836661E+03   -0.56948E-03   -0.58602E-04  1611   0.296E-02    0.346E-01
RMM:  20    -0.874130386973E+03   -0.55031E-03   -0.60911E-04  1639   0.318E-02    0.343E-01
RMM:  21    -0.874131189069E+03   -0.80210E-03   -0.10813E-03  1689   0.324E-02    0.336E-01
RMM:  22    -0.874131412548E+03   -0.22348E-03   -0.33209E-04  1533   0.271E-02    0.329E-01
RMM:  23    -0.874131607306E+03   -0.19476E-03   -0.20164E-04  1501   0.208E-02    0.323E-01
RMM:  24    -0.874131683894E+03   -0.76588E-04   -0.10683E-04  1478   0.192E-02
   5 F= -.89492699E+03 E0= -.89491389E+03  d E =-.349251E+00  mag=    -1.4140
       N       E                     dE             d eps       ncg     rms          rms(c)
DAV:   1    -0.874194344802E+03   -0.62737E-01   -0.21185E+01  2544   0.549E+00    0.227E+00
RMM:   2    -0.874296804071E+03   -0.10246E+00   -0.11485E+00  3045   0.190E+00    0.441E+00
RMM:   3    -0.874264550240E+03    0.32254E-01   -0.20506E-01  3265   0.599E-01    0.165E+00
RMM:   4    -0.874277858088E+03   -0.13308E-01   -0.57541E-02  3426   0.255E-01    0.135E+00
RMM:   5    -0.874287019841E+03   -0.91618E-02   -0.56370E-02  3399   0.255E-01    0.225E+00
RMM:   6    -0.874285347201E+03    0.16726E-02   -0.45785E-02  3247   0.210E-01    0.278E+00
RMM:   7    -0.874278618470E+03    0.67287E-02   -0.14624E-02  3104   0.187E-01    0.108E+00
RMM:   8    -0.874285913179E+03   -0.72947E-02   -0.13459E-02  3363   0.121E-01    0.114E+00
RMM:   9    -0.874283930967E+03    0.19822E-02   -0.31255E-03  2793   0.603E-02    0.851E-01
RMM:  10    -0.874284463087E+03   -0.53212E-03   -0.26039E-03  2533   0.479E-02    0.578E-01
RMM:  11    -0.874286080128E+03   -0.16170E-02   -0.52697E-03  2400   0.575E-02    0.518E-01
RMM:  12    -0.874286898270E+03   -0.81814E-03   -0.58218E-03  2428   0.569E-02    0.212E-01
RMM:  13    -0.874287743029E+03   -0.84476E-03   -0.21815E-03  1823   0.410E-02    0.191E-01
RMM:  14    -0.874288270993E+03   -0.52796E-03   -0.29186E-03  1673   0.419E-02    0.249E-01
RMM:  15    -0.874288710580E+03   -0.43959E-03   -0.59398E-03  1899   0.534E-02    0.645E-02
RMM:  16    -0.874289217493E+03   -0.50691E-03   -0.31055E-03  1809   0.447E-02    0.109E-01
RMM:  17    -0.874289475483E+03   -0.25799E-03   -0.19704E-03  1517   0.380E-02    0.972E-02
RMM:  18    -0.874289767290E+03   -0.29181E-03   -0.26291E-03  1589   0.363E-02    0.122E-01
RMM:  19    -0.874289736553E+03    0.30737E-04   -0.32694E-04  1462   0.293E-02
   6 F= -.89507915E+03 E0= -.89506710E+03  d E =-.152156E+00  mag=    -1.4025
       N       E                     dE             d eps       ncg     rms          rms(c)
DAV:   1    -0.874302521817E+03   -0.12755E-01   -0.26245E+00  2720   0.195E+00    0.694E-01
RMM:   2    -0.874310669795E+03   -0.81480E-02   -0.13649E-01  3034   0.664E-01    0.783E-01
RMM:   3    -0.874314101629E+03   -0.34318E-02   -0.27080E-02  3340   0.205E-01    0.157E+00
RMM:   4    -0.874310439398E+03    0.36622E-02   -0.85740E-03  3309   0.117E-01    0.727E-01
RMM:   5    -0.874313581591E+03   -0.31422E-02   -0.10534E-02  3206   0.124E-01    0.476E-01
RMM:   6    -0.874313808367E+03   -0.22678E-03   -0.42558E-03  3003   0.619E-02    0.538E-01
RMM:   7    -0.874313541100E+03    0.26727E-03   -0.20285E-03  2817   0.612E-02    0.127E-01
RMM:   8    -0.874314025423E+03   -0.48432E-03   -0.15501E-03  2291   0.424E-02    0.174E-01
RMM:   9    -0.874314067923E+03   -0.42501E-04   -0.49563E-04  1556   0.384E-02
   7 F= -.89510142E+03 E0= -.89508887E+03  d E =-.174433E+00  mag=    -1.3908
       N       E                     dE             d eps       ncg     rms          rms(c)
DAV:   1    -0.874277133035E+03    0.36892E-01   -0.10491E+01  2528   0.390E+00    0.147E+00
RMM:   2    -0.874329502681E+03   -0.52370E-01   -0.58799E-01  3037   0.138E+00    0.381E+00
RMM:   3    -0.874306472121E+03    0.23031E-01   -0.11085E-01  3284   0.446E-01    0.134E+00
RMM:   4    -0.874318010325E+03   -0.11538E-01   -0.29581E-02  3506   0.190E-01    0.104E+00
RMM:   5    -0.874320848183E+03   -0.28379E-02   -0.37015E-02  3269   0.226E-01    0.111E+00
RMM:   6    -0.874319194530E+03    0.16537E-02   -0.10355E-02  3068   0.142E-01    0.597E-01
RMM:   7    -0.874319952348E+03   -0.75782E-03   -0.90197E-03  3376   0.103E-01    0.327E-01
RMM:   8    -0.874320314931E+03   -0.36258E-03   -0.39715E-03  3278   0.663E-02    0.255E-01
RMM:   9    -0.874320383546E+03   -0.68615E-04   -0.11440E-03  2154   0.447E-02    0.841E-02
RMM:  10    -0.874320623434E+03   -0.23989E-03   -0.96655E-04  1961   0.393E-02    0.226E-01
RMM:  11    -0.874320675822E+03   -0.52388E-04   -0.10994E-03  1758   0.424E-02    0.140E-01
RMM:  12    -0.874320867867E+03   -0.19205E-03   -0.10715E-03  1625   0.351E-02    0.501E-02
RMM:  13    -0.874321085612E+03   -0.21774E-03   -0.51302E-04  1547   0.341E-02    0.590E-02
RMM:  14    -0.874321201788E+03   -0.11618E-03   -0.66200E-04  1506   0.307E-02    0.878E-02
RMM:  15    -0.874321261607E+03   -0.59818E-04   -0.22245E-04  1491   0.285E-02
   8 F= -.89510453E+03 E0= -.89509190E+03  d E =-.177536E+00  mag=    -1.3512
       N       E                     dE             d eps       ncg     rms          rms(c)
DAV:   1    -0.874314535088E+03    0.66667E-02   -0.29272E+00  2688   0.206E+00    0.760E-01
RMM:   2    -0.874329565860E+03   -0.15031E-01   -0.15964E-01  3050   0.720E-01    0.318E+00
RMM:   3    -0.874315171427E+03    0.14394E-01   -0.26808E-02  3111   0.249E-01    0.883E-01
RMM:   4    -0.874324829859E+03   -0.96584E-02   -0.73538E-03  3196   0.113E-01    0.461E-01
RMM:   5    -0.874326661277E+03   -0.18314E-02   -0.85092E-03  3114   0.107E-01    0.126E+00
RMM:   6    -0.874323704549E+03    0.29567E-02   -0.32955E-03  2639   0.780E-02    0.151E-01
RMM:   7    -0.874325703758E+03   -0.19992E-02   -0.25069E-03  2578   0.657E-02    0.591E-02
RMM:   8    -0.874325942390E+03   -0.23863E-03   -0.98890E-04  2002   0.386E-02    0.205E-01
RMM:   9    -0.874325853059E+03    0.89331E-04   -0.23710E-04  1484   0.331E-02
   9 F= -.89511128E+03 E0= -.89509873E+03  d E =-.184291E+00  mag=    -1.3777
       N       E                     dE             d eps       ncg     rms          rms(c)
DAV:   1    -0.874359875241E+03   -0.33933E-01   -0.66108E+00  2496   0.307E+00    0.120E+00
RMM:   2    -0.874386034047E+03   -0.26159E-01   -0.27812E-01  2962   0.100E+00    0.211E+00
RMM:   3    -0.874392255256E+03   -0.62212E-02   -0.53329E-02  3164   0.320E-01    0.267E+00
RMM:   4    -0.874383663526E+03    0.85917E-02   -0.16146E-02  3281   0.176E-01    0.166E+00
RMM:   5    -0.874393743111E+03   -0.10080E-01   -0.29635E-02  3005   0.219E-01    0.355E+00
RMM:   6    -0.874377284554E+03    0.16459E-01   -0.10973E-02  3037   0.168E-01    0.439E-01
RMM:   7    -0.874389205237E+03   -0.11921E-01   -0.39352E-03  2609   0.976E-02    0.416E-01
RMM:   8    -0.874389323846E+03   -0.11861E-03   -0.44130E-03  2830   0.844E-02    0.845E-02
RMM:   9    -0.874389828186E+03   -0.50434E-03   -0.10971E-03  1881   0.393E-02    0.438E-01
RMM:  10    -0.874389507193E+03    0.32099E-03   -0.85484E-04  1724   0.435E-02    0.261E-01
RMM:  11    -0.874389810422E+03   -0.30323E-03   -0.13573E-03  1770   0.355E-02    0.134E-01
RMM:  12    -0.874390184519E+03   -0.37410E-03   -0.78333E-04  1555   0.404E-02    0.168E-01
RMM:  13    -0.874390296580E+03   -0.11206E-03   -0.77755E-04  1491   0.296E-02    0.147E-01
RMM:  14    -0.874390412052E+03   -0.11547E-03   -0.29710E-04  1462   0.281E-02    0.109E-01
RMM:  15    -0.874390575333E+03   -0.16328E-03   -0.62119E-04  1474   0.271E-02    0.125E-01
RMM:  16    -0.874390726289E+03   -0.15096E-03   -0.52729E-04  1493   0.283E-02    0.853E-02
RMM:  17    -0.874390902013E+03   -0.17572E-03   -0.89710E-04  1457   0.258E-02    0.841E-02
RMM:  18    -0.874391184171E+03   -0.28216E-03   -0.22310E-03  1536   0.366E-02    0.713E-02
RMM:  19    -0.874391467316E+03   -0.28314E-03   -0.24283E-03  1496   0.278E-02    0.286E-02
RMM:  20    -0.874391762924E+03   -0.29561E-03   -0.25659E-03  1555   0.385E-02    0.228E-02
RMM:  21    -0.874392322475E+03   -0.55955E-03   -0.10428E-02  1654   0.430E-02    0.436E-02
RMM:  22    -0.874392609218E+03   -0.28674E-03   -0.10796E-03  1533   0.328E-02    0.249E-02
RMM:  23    -0.874392759401E+03   -0.15018E-03   -0.91473E-04  1420   0.234E-02    0.275E-02
RMM:  24    -0.874392808276E+03   -0.48875E-04   -0.13042E-04  1406   0.213E-02
  10 F= -.89517918E+03 E0= -.89516815E+03  d E =-.678988E-01  mag=    -1.5132
       N       E                     dE             d eps       ncg     rms          rms(c)
DAV:   1    -0.874408245229E+03   -0.15486E-01   -0.42487E+00  2432   0.246E+00    0.935E-01
RMM:   2    -0.874424007088E+03   -0.15762E-01   -0.17629E-01  2982   0.798E-01    0.104E+00
RMM:   3    -0.874430040925E+03   -0.60338E-02   -0.34418E-02  3253   0.243E-01    0.188E+00
RMM:   4    -0.874423731218E+03    0.63097E-02   -0.11084E-02  3281   0.135E-01    0.936E-01
RMM:   5    -0.874428950504E+03   -0.52193E-02   -0.17303E-02  3138   0.160E-01    0.190E+00
RMM:   6    -0.874424559956E+03    0.43905E-02   -0.70111E-03  3007   0.123E-01    0.835E-01
RMM:   7    -0.874427419218E+03   -0.28593E-02   -0.28119E-03  2561   0.854E-02    0.164E-01
RMM:   8    -0.874427887635E+03   -0.46842E-03   -0.33842E-03  2794   0.666E-02    0.106E-01
RMM:   9    -0.874428211394E+03   -0.32376E-03   -0.62898E-04  1753   0.396E-02    0.342E-01
RMM:  10    -0.874427993114E+03    0.21828E-03   -0.54135E-04  1600   0.379E-02    0.105E-01
RMM:  11    -0.874428323363E+03   -0.33025E-03   -0.10606E-03  1701   0.359E-02    0.643E-02
RMM:  12    -0.874428492812E+03   -0.16945E-03   -0.42603E-04  1494   0.354E-02    0.969E-02
RMM:  13    -0.874428621382E+03   -0.12857E-03   -0.72117E-04  1502   0.268E-02    0.119E-01
RMM:  14    -0.874428653855E+03   -0.32473E-04   -0.16103E-04  1441   0.272E-02
  11 F= -.89521580E+03 E0= -.89520627E+03  d E =-.104519E+00  mag=    -1.6062
       N       E                     dE             d eps       ncg     rms          rms(c)
DAV:   1    -0.874374616625E+03    0.54005E-01   -0.16979E+01  2384   0.492E+00    0.181E+00
RMM:   2    -0.874435691166E+03   -0.61075E-01   -0.69923E-01  3004   0.157E+00    0.149E+00
RMM:   3    -0.874450239221E+03   -0.14548E-01   -0.12460E-01  3322   0.443E-01    0.192E+00
RMM:   4    -0.874445561924E+03    0.46773E-02   -0.37798E-02  3440   0.218E-01    0.119E+00
RMM:   5    -0.874452221968E+03   -0.66600E-02   -0.55110E-02  3281   0.274E-01    0.185E+00
RMM:   6    -0.874450911564E+03    0.13104E-02   -0.20290E-02  3207   0.195E-01    0.120E+00
RMM:   7    -0.874449778907E+03    0.11327E-02   -0.90179E-03  3132   0.129E-01    0.311E-01
RMM:   8    -0.874450767714E+03   -0.98881E-03   -0.10322E-02  3335   0.969E-02    0.482E-01
RMM:   9    -0.874451306526E+03   -0.53881E-03   -0.27244E-03  2616   0.758E-02    0.525E-01
RMM:  10    -0.874450955332E+03    0.35119E-03   -0.13168E-03  2091   0.451E-02    0.330E-01
RMM:  11    -0.874451106084E+03   -0.15075E-03   -0.21828E-03  2391   0.506E-02    0.104E-01
RMM:  12    -0.874451613984E+03   -0.50790E-03   -0.13982E-03  1757   0.416E-02    0.201E-01
RMM:  13    -0.874451664876E+03   -0.50892E-04   -0.47733E-04  1664   0.355E-02
  12 F= -.89524039E+03 E0= -.89523415E+03  d E =-.129102E+00  mag=    -1.7724
       N       E                     dE             d eps       ncg     rms          rms(c)
DAV:   1    -0.874446415651E+03    0.51983E-02   -0.12960E+01  2432   0.452E+00    0.154E+00
RMM:   2    -0.874489801898E+03   -0.43386E-01   -0.50677E-01  2973   0.136E+00    0.205E+00
RMM:   3    -0.874492736685E+03   -0.29348E-02   -0.87365E-02  3175   0.431E-01    0.148E+00
RMM:   4    -0.874495926852E+03   -0.31902E-02   -0.27471E-02  3606   0.164E-01    0.135E+00
RMM:   5    -0.874497162150E+03   -0.12353E-02   -0.35020E-02  3241   0.207E-01    0.146E+00
RMM:   6    -0.874497525488E+03   -0.36334E-03   -0.25472E-02  3210   0.183E-01    0.677E-01
RMM:   7    -0.874497086006E+03    0.43948E-03   -0.88922E-03  2804   0.152E-01    0.418E-01
RMM:   8    -0.874496511552E+03    0.57445E-03   -0.13269E-02  3080   0.116E-01    0.321E-01
RMM:   9    -0.874496426643E+03    0.84909E-04   -0.15272E-03  2272   0.840E-02    0.123E-01
RMM:  10    -0.874496760971E+03   -0.33433E-03   -0.10676E-03  2036   0.346E-02    0.140E-01
RMM:  11    -0.874496850795E+03   -0.89824E-04   -0.62723E-04  1646   0.379E-02
  13 F= -.89528756E+03 E0= -.89528360E+03  d E =-.471739E-01  mag=    -1.9089
       N       E                     dE             d eps       ncg     rms          rms(c)
DAV:   1    -0.874498317080E+03   -0.15561E-02   -0.18638E+00  2528   0.172E+00    0.512E-01
RMM:   2    -0.874504356083E+03   -0.60390E-02   -0.69087E-02  2912   0.521E-01    0.458E-01
RMM:   3    -0.874505730235E+03   -0.13742E-02   -0.15685E-02  3387   0.149E-01    0.410E-01
RMM:   4    -0.874506089820E+03   -0.35958E-03   -0.41923E-03  3116   0.773E-02    0.391E-01
RMM:   5    -0.874506504169E+03   -0.41435E-03   -0.47475E-03  3172   0.775E-02    0.172E-01
RMM:   6    -0.874506633642E+03   -0.12947E-03   -0.22359E-03  2334   0.517E-02    0.119E-01
RMM:   7    -0.874506770062E+03   -0.13642E-03   -0.12630E-03  2107   0.455E-02    0.553E-02
RMM:   8    -0.874506861725E+03   -0.91663E-04   -0.75258E-04  1637   0.370E-02
  14 F= -.89529832E+03 E0= -.89529643E+03  d E =-.579344E-01  mag=    -1.9527
       N       E                     dE             d eps       ncg     rms          rms(c)
DAV:   1    -0.874483053467E+03    0.23717E-01   -0.73397E+00  2368   0.341E+00    0.927E-01
RMM:   2    -0.874505575182E+03   -0.22522E-01   -0.26083E-01  2946   0.101E+00    0.925E-01
RMM:   3    -0.874510147666E+03   -0.45725E-02   -0.52636E-02  3419   0.285E-01    0.863E-01
RMM:   4    -0.874510480444E+03   -0.33278E-03   -0.14433E-02  3278   0.143E-01    0.678E-01
RMM:   5    -0.874512474151E+03   -0.19937E-02   -0.17489E-02  3287   0.138E-01    0.209E-01
RMM:   6    -0.874512173261E+03    0.30089E-03   -0.46526E-03  3012   0.780E-02    0.151E-01
RMM:   7    -0.874511963206E+03    0.21005E-03   -0.58670E-03  3312   0.769E-02    0.911E-02
RMM:   8    -0.874512041206E+03   -0.78000E-04   -0.13067E-03  2134   0.454E-02    0.781E-02
RMM:   9    -0.874512152655E+03   -0.11145E-03   -0.65071E-04  1722   0.368E-02    0.657E-02
RMM:  10    -0.874512321836E+03   -0.16918E-03   -0.11165E-03  1698   0.395E-02    0.465E-02
RMM:  11    -0.874512494068E+03   -0.17223E-03   -0.77416E-04  1558   0.416E-02    0.314E-02
RMM:  12    -0.874512602804E+03   -0.10874E-03   -0.68171E-04  1498   0.348E-02    0.317E-02
RMM:  13    -0.874512702639E+03   -0.99835E-04   -0.31519E-04  1470   0.317E-02
  15 F= -.89530566E+03 E0= -.89530561E+03  d E =-.652780E-01  mag=    -1.9992
       N       E                     dE             d eps       ncg     rms          rms(c)
DAV:   1    -0.874510770126E+03    0.18327E-02   -0.86455E-01  2688   0.117E+00    0.315E-01
RMM:   2    -0.874513162966E+03   -0.23928E-02   -0.30232E-02  2877   0.341E-01    0.321E-01
RMM:   3    -0.874513588713E+03   -0.42575E-03   -0.51560E-03  3047   0.939E-02    0.299E-01
RMM:   4    -0.874513694666E+03   -0.10595E-03   -0.13264E-03  2201   0.519E-02    0.226E-01
RMM:   5    -0.874514147192E+03   -0.45253E-03   -0.30771E-03  2487   0.578E-02    0.813E-02
RMM:   6    -0.874514152571E+03   -0.53784E-05   -0.99333E-04  1498   0.359E-02
  16 F= -.89530660E+03 E0= -.89530620E+03  d E =-.662099E-01  mag=    -1.9921
       N       E                     dE             d eps       ncg     rms          rms(c)
DAV:   1    -0.874522607911E+03   -0.84607E-02   -0.52393E+00  2384   0.284E+00    0.699E-01
RMM:   2    -0.874539288938E+03   -0.16681E-01   -0.19735E-01  3004   0.841E-01    0.610E-01
RMM:   3    -0.874541972959E+03   -0.26840E-02   -0.33149E-02  3337   0.245E-01    0.532E-01
RMM:   4    -0.874542382192E+03   -0.40923E-03   -0.13048E-02  3279   0.137E-01    0.385E-01
RMM:   5    -0.874543125080E+03   -0.74289E-03   -0.72987E-03  3324   0.902E-02    0.197E-01
RMM:   6    -0.874543023511E+03    0.10157E-03   -0.32762E-03  2995   0.644E-02    0.110E-01
RMM:   7    -0.874543183688E+03   -0.16018E-03   -0.31030E-03  2961   0.570E-02    0.736E-02
RMM:   8    -0.874543265897E+03   -0.82209E-04   -0.63055E-04  1788   0.382E-02
  17 F= -.89533577E+03 E0= -.89533529E+03  d E =-.291735E-01  mag=    -1.9909
       N       E                     dE             d eps       ncg     rms          rms(c)
DAV:   1    -0.874545491058E+03   -0.23074E-02   -0.11297E+00  2704   0.131E+00    0.330E-01
RMM:   2    -0.874549252087E+03   -0.37610E-02   -0.43643E-02  2991   0.396E-01    0.285E-01
RMM:   3    -0.874550029288E+03   -0.77720E-03   -0.90432E-03  3473   0.120E-01    0.247E-01
RMM:   4    -0.874550287851E+03   -0.25856E-03   -0.38164E-03  3104   0.671E-02    0.185E-01
RMM:   5    -0.874550582790E+03   -0.29494E-03   -0.23900E-03  2595   0.515E-02    0.921E-02
RMM:   6    -0.874550720444E+03   -0.13765E-03   -0.11114E-03  1923   0.411E-02    0.544E-02
RMM:   7    -0.874550804799E+03   -0.84354E-04   -0.87601E-04  1717   0.368E-02
  18 F= -.89534334E+03 E0= -.89534279E+03  d E =-.367422E-01  mag=    -1.9885
       N       E                     dE             d eps       ncg     rms          rms(c)
DAV:   1    -0.874534883860E+03    0.15837E-01   -0.45016E+00  2400   0.263E+00    0.638E-01
RMM:   2    -0.874549485075E+03   -0.14601E-01   -0.17019E-01  3021   0.778E-01    0.543E-01
RMM:   3    -0.874551955408E+03   -0.24703E-02   -0.30530E-02  3447   0.233E-01    0.466E-01
RMM:   4    -0.874552411394E+03   -0.45599E-03   -0.11824E-02  3336   0.120E-01    0.347E-01
RMM:   5    -0.874552996004E+03   -0.58461E-03   -0.65279E-03  3354   0.869E-02    0.177E-01
RMM:   6    -0.874553169154E+03   -0.17315E-03   -0.28284E-03  2779   0.548E-02    0.103E-01
RMM:   7    -0.874553313169E+03   -0.14402E-03   -0.26926E-03  2898   0.575E-02    0.657E-02
RMM:   8    -0.874553446259E+03   -0.13309E-03   -0.98773E-04  1978   0.384E-02    0.619E-02
RMM:   9    -0.874553505692E+03   -0.59433E-04   -0.45015E-04  1544   0.385E-02
  19 F= -.89534610E+03 E0= -.89534547E+03  d E =-.395070E-01  mag=    -1.9875
       N       E                     dE             d eps       ncg     rms          rms(c)
DAV:   1    -0.874550823909E+03    0.26223E-02   -0.11039E+00  2656   0.131E+00    0.321E-01
RMM:   2    -0.874554225081E+03   -0.34012E-02   -0.41178E-02  2976   0.380E-01    0.272E-01
RMM:   3    -0.874554663445E+03   -0.43836E-03   -0.56560E-03  3066   0.112E-01    0.229E-01
RMM:   4    -0.874554784079E+03   -0.12063E-03   -0.20982E-03  2481   0.633E-02    0.161E-01
RMM:   5    -0.874554995667E+03   -0.21159E-03   -0.13808E-03  1995   0.470E-02    0.800E-02
RMM:   6    -0.874555067629E+03   -0.71962E-04   -0.42249E-04  1480   0.363E-02
  20 F= -.89534763E+03 E0= -.89534709E+03  d E =-.410365E-01  mag=    -1.9901
       N       E                     dE             d eps       ncg     rms          rms(c)
DAV:   1    -0.874555238019E+03   -0.24235E-03   -0.45123E+00  2368   0.253E+00    0.751E-01
RMM:   2    -0.874567267768E+03   -0.12030E-01   -0.12774E-01  2977   0.669E-01    0.578E-01
RMM:   3    -0.874568825320E+03   -0.15576E-02   -0.20436E-02  3304   0.191E-01    0.449E-01
RMM:   4    -0.874569257190E+03   -0.43187E-03   -0.73315E-03  3204   0.104E-01    0.182E-01
RMM:   5    -0.874569544256E+03   -0.28707E-03   -0.25534E-03  2534   0.523E-02    0.862E-02
RMM:   6    -0.874569596232E+03   -0.51977E-04   -0.11100E-03  2302   0.455E-02    0.599E-02
RMM:   7    -0.874569677541E+03   -0.81308E-04   -0.74075E-04  1761   0.373E-02
  21 F= -.89536349E+03 E0= -.89536321E+03  d E =-.158561E-01  mag=    -1.9950
       N       E                     dE             d eps       ncg     rms          rms(c)
DAV:   1    -0.874569946063E+03   -0.34983E-03   -0.87603E-01  2464   0.111E+00    0.337E-01
RMM:   2    -0.874572499517E+03   -0.25535E-02   -0.26335E-02  2961   0.301E-01    0.261E-01
RMM:   3    -0.874572980407E+03   -0.48089E-03   -0.52441E-03  3443   0.887E-02    0.206E-01
RMM:   4    -0.874573221686E+03   -0.24128E-03   -0.24513E-03  2739   0.525E-02    0.892E-02
RMM:   5    -0.874573386723E+03   -0.16504E-03   -0.12543E-03  1825   0.371E-02    0.458E-02
RMM:   6    -0.874573436214E+03   -0.49491E-04   -0.27554E-04  1534   0.348E-02
  22 F= -.89536780E+03 E0= -.89536762E+03  d E =-.201638E-01  mag=    -1.9969
       N       E                     dE             d eps       ncg     rms          rms(c)
DAV:   1    -0.874562920459E+03    0.10466E-01   -0.34947E+00  2368   0.222E+00    0.681E-01
RMM:   2    -0.874572703411E+03   -0.97830E-02   -0.10267E-01  2984   0.596E-01    0.525E-01
RMM:   3    -0.874574156762E+03   -0.14534E-02   -0.18114E-02  3459   0.173E-01    0.409E-01
RMM:   4    -0.874574644955E+03   -0.48819E-03   -0.76126E-03  3286   0.996E-02    0.167E-01
RMM:   5    -0.874574902263E+03   -0.25731E-03   -0.27501E-03  2616   0.538E-02    0.838E-02
RMM:   6    -0.874575019121E+03   -0.11686E-03   -0.16929E-03  2725   0.493E-02    0.614E-02
RMM:   7    -0.874575097383E+03   -0.78262E-04   -0.75369E-04  1817   0.357E-02
  23 F= -.89537044E+03 E0= -.89537037E+03  d E =-.228124E-01  mag=    -1.9988
       N       E                     dE             d eps       ncg     rms          rms(c)
DAV:   1    -0.874576993135E+03   -0.19740E-02   -0.22009E+00  2464   0.173E+00    0.315E-01
RMM:   2    -0.874582342778E+03   -0.53496E-02   -0.53774E-02  3037   0.395E-01    0.221E-01
RMM:   3    -0.874582883137E+03   -0.54036E-03   -0.71204E-03  3423   0.111E-01    0.183E-01
RMM:   4    -0.874583053160E+03   -0.17002E-03   -0.26409E-03  2930   0.519E-02    0.112E-01
RMM:   5    -0.874583245175E+03   -0.19202E-03   -0.14547E-03  2105   0.423E-02    0.512E-02
RMM:   6    -0.874583339753E+03   -0.94578E-04   -0.46672E-04  1637   0.382E-02
  24 F= -.89537901E+03 E0= -.89537899E+03  d E =-.856438E-02  mag=    -1.9997
       N       E                     dE             d eps       ncg     rms          rms(c)
DAV:   1    -0.874544932911E+03    0.38312E-01   -0.19742E+01  2368   0.519E+00    0.967E-01
RMM:   2    -0.874592378203E+03   -0.47445E-01   -0.47912E-01  3034   0.119E+00    0.685E-01
RMM:   3    -0.874596515864E+03   -0.41377E-02   -0.59397E-02  3329   0.337E-01    0.550E-01
RMM:   4    -0.874597035132E+03   -0.51927E-03   -0.18190E-02  3364   0.146E-01    0.346E-01
RMM:   5    -0.874597678299E+03   -0.64317E-03   -0.84147E-03  3413   0.921E-02    0.152E-01
RMM:   6    -0.874598017771E+03   -0.33947E-03   -0.33242E-03  3295   0.585E-02    0.967E-02
RMM:   7    -0.874598212559E+03   -0.19479E-03   -0.21636E-03  2826   0.480E-02    0.735E-02
RMM:   8    -0.874598304121E+03   -0.91562E-04   -0.86579E-04  2021   0.401E-02
  25 F= -.89539495E+03 E0= -.89539495E+03  d E =-.245062E-01  mag=    -2.0000
       N       E                     dE             d eps       ncg     rms          rms(c)
DAV:   1    -0.874593330092E+03    0.48825E-02   -0.25379E+00  2688   0.186E+00    0.345E-01
RMM:   2    -0.874599464511E+03   -0.61344E-02   -0.62033E-02  3003   0.433E-01    0.245E-01
RMM:   3    -0.874600167079E+03   -0.70257E-03   -0.92849E-03  3433   0.123E-01    0.201E-01
RMM:   4    -0.874600350311E+03   -0.18323E-03   -0.32620E-03  3201   0.578E-02    0.126E-01
RMM:   5    -0.874600577552E+03   -0.22724E-03   -0.19119E-03  2487   0.439E-02    0.583E-02
RMM:   6    -0.874600668244E+03   -0.90693E-04   -0.58608E-04  1789   0.389E-02
  26 F= -.89539767E+03 E0= -.89539767E+03  d E =-.272234E-01  mag=    -2.0000
       N       E                     dE             d eps       ncg     rms          rms(c)
DAV:   1    -0.874605830364E+03   -0.52528E-02   -0.24652E+00  2400   0.183E+00    0.595E-01
RMM:   2    -0.874612802788E+03   -0.69724E-02   -0.79596E-02  3008   0.515E-01    0.443E-01
RMM:   3    -0.874613792405E+03   -0.98962E-03   -0.12112E-02  3230   0.153E-01    0.340E-01
RMM:   4    -0.874614070652E+03   -0.27825E-03   -0.42868E-03  3076   0.801E-02    0.164E-01
RMM:   5    -0.874614293832E+03   -0.22318E-03   -0.15610E-03  2125   0.463E-02    0.699E-02
RMM:   6    -0.874614343024E+03   -0.49192E-04   -0.62194E-04  1808   0.418E-02
  27 F= -.89541059E+03 E0= -.89541059E+03  d E =-.129203E-01  mag=    -2.0000
       N       E                     dE             d eps       ncg     rms          rms(c)
DAV:   1    -0.874615844918E+03   -0.15511E-02   -0.95268E-01  2464   0.114E+00    0.366E-01
RMM:   2    -0.874618813986E+03   -0.29691E-02   -0.32477E-02  3009   0.328E-01    0.271E-01
RMM:   3    -0.874619321341E+03   -0.50736E-03   -0.58738E-03  3404   0.995E-02    0.213E-01
RMM:   4    -0.874619550494E+03   -0.22915E-03   -0.28343E-03  3018   0.583E-02    0.109E-01
RMM:   5    -0.874619698497E+03   -0.14800E-03   -0.11532E-03  1872   0.386E-02    0.540E-02
RMM:   6    -0.874619749779E+03   -0.51282E-04   -0.46051E-04  1643   0.380E-02
  28 F= -.89541561E+03 E0= -.89541561E+03  d E =-.179419E-01  mag=    -2.0000
       N       E                     dE             d eps       ncg     rms          rms(c)
DAV:   1    -0.874609115626E+03    0.10583E-01   -0.37999E+00  2368   0.227E+00    0.711E-01
RMM:   2    -0.874620416051E+03   -0.11300E-01   -0.12637E-01  3022   0.649E-01    0.526E-01
RMM:   3    -0.874622145883E+03   -0.17298E-02   -0.21273E-02  3400   0.195E-01    0.413E-01
RMM:   4    -0.874622608921E+03   -0.46304E-03   -0.85181E-03  3318   0.104E-01    0.213E-01
RMM:   5    -0.874622956505E+03   -0.34758E-03   -0.32470E-03  2885   0.613E-02    0.951E-02
RMM:   6    -0.874623078360E+03   -0.12186E-03   -0.21728E-03  2863   0.545E-02    0.549E-02
RMM:   7    -0.874623168100E+03   -0.89740E-04   -0.90328E-04  1903   0.371E-02
  29 F= -.89541809E+03 E0= -.89541809E+03  d E =-.204271E-01  mag=    -1.9999
       N       E                     dE             d eps       ncg     rms          rms(c)
DAV:   1    -0.874621111641E+03    0.19667E-02   -0.67217E-01  2752   0.957E-01    0.304E-01
RMM:   2    -0.874622938815E+03   -0.18272E-02   -0.22116E-02  3006   0.267E-01    0.225E-01
RMM:   3    -0.874623171830E+03   -0.23302E-03   -0.26594E-03  2765   0.771E-02    0.173E-01
RMM:   4    -0.874623295375E+03   -0.12354E-03   -0.11588E-03  2064   0.470E-02    0.793E-02
RMM:   5    -0.874623422789E+03   -0.12741E-03   -0.73029E-04  1496   0.383E-02    0.380E-02
RMM:   6    -0.874623453387E+03   -0.30598E-04   -0.15988E-04  1412   0.282E-02
  30 F= -.89541877E+03 E0= -.89541877E+03  d E =-.211051E-01  mag=    -1.9999
       N       E                     dE             d eps       ncg     rms          rms(c)
DAV:   1    -0.874624438299E+03   -0.10155E-02   -0.31368E+00  2368   0.205E+00    0.483E-01
RMM:   2    -0.874632471876E+03   -0.80336E-02   -0.84228E-02  2953   0.542E-01    0.347E-01
RMM:   3    -0.874633452699E+03   -0.98082E-03   -0.12757E-02  3260   0.156E-01    0.278E-01
RMM:   4    -0.874633609285E+03   -0.15659E-03   -0.37271E-03  3084   0.782E-02    0.143E-01
RMM:   5    -0.874633830499E+03   -0.22121E-03   -0.16493E-03  2265   0.433E-02    0.667E-02
RMM:   6    -0.874633886755E+03   -0.56256E-04   -0.51610E-04  1724   0.400E-02
  31 F= -.89542934E+03 E0= -.89542933E+03  d E =-.105639E-01  mag=    -1.9999
       N       E                     dE             d eps       ncg     rms          rms(c)
DAV:   1    -0.874633358945E+03    0.47155E-03   -0.15427E+00  2368   0.144E+00    0.346E-01
RMM:   2    -0.874637586990E+03   -0.42280E-02   -0.43584E-02  2972   0.385E-01    0.251E-01
RMM:   3    -0.874638219732E+03   -0.63274E-03   -0.75640E-03  3429   0.113E-01    0.203E-01
RMM:   4    -0.874638444111E+03   -0.22438E-03   -0.29729E-03  3077   0.612E-02    0.105E-01
RMM:   5    -0.874638602163E+03   -0.15805E-03   -0.12336E-03  2011   0.385E-02    0.531E-02
RMM:   6    -0.874638662005E+03   -0.59843E-04   -0.42677E-04  1645   0.388E-02
  32 F= -.89543421E+03 E0= -.89543419E+03  d E =-.154349E-01  mag=    -1.9998
       N       E                     dE             d eps       ncg     rms          rms(c)
DAV:   1    -0.874621460875E+03    0.17141E-01   -0.61643E+00  2368   0.287E+00    0.690E-01
RMM:   2    -0.874637970714E+03   -0.16510E-01   -0.17065E-01  2987   0.767E-01    0.499E-01
RMM:   3    -0.874640196835E+03   -0.22261E-02   -0.27756E-02  3424   0.222E-01    0.401E-01
RMM:   4    -0.874640560208E+03   -0.36337E-03   -0.92771E-03  3297   0.112E-01    0.209E-01
RMM:   5    -0.874640960477E+03   -0.40027E-03   -0.38034E-03  3001   0.643E-02    0.103E-01
RMM:   6    -0.874641127833E+03   -0.16736E-03   -0.21059E-03  2904   0.521E-02    0.806E-02
RMM:   7    -0.874641228951E+03   -0.10112E-03   -0.10537E-03  2075   0.377E-02    0.736E-02
RMM:   8    -0.874641277326E+03   -0.48375E-04   -0.40724E-04  1667   0.405E-02
  33 F= -.89543702E+03 E0= -.89543698E+03  d E =-.182516E-01  mag=    -1.9993
       N       E                     dE             d eps       ncg     rms          rms(c)
DAV:   1    -0.874639080766E+03    0.21482E-02   -0.91764E-01  2528   0.111E+00    0.265E-01
RMM:   2    -0.874641446268E+03   -0.23655E-02   -0.24762E-02  2921   0.292E-01    0.192E-01
RMM:   3    -0.874641694252E+03   -0.24798E-03   -0.30476E-03  2789   0.826E-02    0.154E-01
RMM:   4    -0.874641805525E+03   -0.11127E-03   -0.11728E-03  2051   0.490E-02    0.745E-02
RMM:   5    -0.874641916300E+03   -0.11078E-03   -0.58538E-04  1469   0.355E-02    0.428E-02
RMM:   6    -0.874641941497E+03   -0.25197E-04   -0.13654E-04  1411   0.264E-02
  34 F= -.89543761E+03 E0= -.89543758E+03  d E =-.188364E-01  mag=    -1.9996
       N       E                     dE             d eps       ncg     rms          rms(c)
DAV:   1    -0.874640517275E+03    0.13990E-02   -0.38884E+00  2368   0.221E+00    0.420E-01
RMM:   2    -0.874650032557E+03   -0.95153E-02   -0.10106E-01  2978   0.565E-01    0.289E-01
RMM:   3    -0.874651043292E+03   -0.10107E-02   -0.14023E-02  3173   0.173E-01    0.237E-01
RMM:   4    -0.874651145910E+03   -0.10262E-03   -0.39016E-03  3065   0.783E-02    0.161E-01
RMM:   5    -0.874651358867E+03   -0.21296E-03   -0.23149E-03  2756   0.527E-02    0.764E-02
RMM:   6    -0.874651424440E+03   -0.65573E-04   -0.62153E-04  1800   0.378E-02
  35 F= -.89544715E+03 E0= -.89544709E+03  d E =-.954005E-02  mag=    -1.9991
       N       E                     dE             d eps       ncg     rms          rms(c)
DAV:   1    -0.874620442785E+03    0.30916E-01   -0.13666E+01  2368   0.415E+00    0.809E-01
RMM:   2    -0.874655378982E+03   -0.34936E-01   -0.36664E-01  3009   0.107E+00    0.549E-01
RMM:   3    -0.874659145410E+03   -0.37664E-02   -0.51603E-02  3293   0.329E-01    0.452E-01
RMM:   4    -0.874659752715E+03   -0.60730E-03   -0.16903E-02  3364   0.146E-01    0.308E-01
RMM:   5    -0.874660332742E+03   -0.58003E-03   -0.79723E-03  3429   0.955E-02    0.153E-01
RMM:   6    -0.874660571102E+03   -0.23836E-03   -0.35415E-03  3191   0.616E-02    0.934E-02
RMM:   7    -0.874660785269E+03   -0.21417E-03   -0.24517E-03  3104   0.530E-02    0.703E-02
RMM:   8    -0.874660852003E+03   -0.66735E-04   -0.87225E-04  2039   0.379E-02
  36 F= -.89545670E+03 E0= -.89545657E+03  d E =-.190945E-01  mag=    -1.9976
       N       E                     dE             d eps       ncg     rms          rms(c)
DAV:   1    -0.874655468830E+03    0.53164E-02   -0.57875E+00  2496   0.255E+00    0.505E-01
RMM:   2    -0.874668726611E+03   -0.13258E-01   -0.13489E-01  3070   0.580E-01    0.338E-01
RMM:   3    -0.874669551599E+03   -0.82499E-03   -0.13000E-02  3180   0.166E-01    0.281E-01
RMM:   4    -0.874669716465E+03   -0.16487E-03   -0.46574E-03  3047   0.723E-02    0.163E-01
RMM:   5    -0.874669932937E+03   -0.21647E-03   -0.18956E-03  2452   0.493E-02    0.741E-02
RMM:   6    -0.874670020713E+03   -0.87776E-04   -0.57341E-04  1728   0.397E-02
  37 F= -.89546664E+03 E0= -.89546619E+03  d E =-.993425E-02  mag=    -1.9918
       N       E                     dE             d eps       ncg     rms          rms(c)
DAV:   1    -0.874665679601E+03    0.42533E-02   -0.36203E+00  2368   0.202E+00    0.392E-01
RMM:   2    -0.874674108828E+03   -0.84292E-02   -0.84733E-02  3080   0.464E-01    0.264E-01
RMM:   3    -0.874674770460E+03   -0.66163E-03   -0.93077E-03  3290   0.135E-01    0.222E-01
RMM:   4    -0.874674940742E+03   -0.17028E-03   -0.35222E-03  3024   0.621E-02    0.131E-01
RMM:   5    -0.874675103296E+03   -0.16255E-03   -0.13829E-03  2175   0.432E-02    0.631E-02
RMM:   6    -0.874675183984E+03   -0.80687E-04   -0.46429E-04  1668   0.394E-02
  38 F= -.89547241E+03 E0= -.89547156E+03  d E =-.157072E-01  mag=    -1.9827
       N       E                     dE             d eps       ncg     rms          rms(c)
DAV:   1    -0.874643044133E+03    0.32059E-01   -0.14474E+01  2368   0.404E+00    0.791E-01
RMM:   2    -0.874676706520E+03   -0.33662E-01   -0.33869E-01  3069   0.926E-01    0.536E-01
RMM:   3    -0.874678927102E+03   -0.22206E-02   -0.34474E-02  3257   0.270E-01    0.442E-01
RMM:   4    -0.874679338785E+03   -0.41168E-03   -0.12013E-02  3364   0.108E-01    0.314E-01
RMM:   5    -0.874679677608E+03   -0.33882E-03   -0.62457E-03  3299   0.899E-02    0.141E-01
RMM:   6    -0.874679823064E+03   -0.14546E-03   -0.19259E-03  2576   0.466E-02    0.831E-02
RMM:   7    -0.874679977966E+03   -0.15490E-03   -0.13506E-03  2505   0.459E-02    0.618E-02
RMM:   8    -0.874680011655E+03   -0.33689E-04   -0.46384E-04  1671   0.358E-02
  39 F= -.89547847E+03 E0= -.89547673E+03  d E =-.217646E-01  mag=    -1.9564
       N       E                     dE             d eps       ncg     rms          rms(c)
DAV:   1    -0.874674227574E+03    0.57504E-02   -0.61784E+00  2496   0.258E+00    0.514E-01
RMM:   2    -0.874687495158E+03   -0.13268E-01   -0.13236E-01  3038   0.544E-01    0.356E-01
RMM:   3    -0.874688014766E+03   -0.51961E-03   -0.11307E-02  3085   0.162E-01    0.281E-01
RMM:   4    -0.874688166323E+03   -0.15156E-03   -0.42017E-03  2983   0.626E-02    0.241E-01
RMM:   5    -0.874688257972E+03   -0.91649E-04   -0.22794E-03  2494   0.567E-02    0.980E-02
RMM:   6    -0.874688411446E+03   -0.15347E-03   -0.78854E-04  1716   0.383E-02    0.681E-02
RMM:   7    -0.874688447594E+03   -0.36149E-04   -0.27497E-04  1501   0.385E-02
  40 F= -.89548782E+03 E0= -.89548560E+03  d E =-.935565E-02  mag=    -1.9494
       N       E                     dE             d eps       ncg     rms          rms(c)
DAV:   1    -0.874568188157E+03    0.12022E+00   -0.55465E+01  2368   0.773E+00    0.158E+00
RMM:   2    -0.874693604221E+03   -0.12542E+00   -0.12460E+00  3036   0.165E+00    0.114E+00
RMM:   3    -0.874698413670E+03   -0.48094E-02   -0.10618E-01  3074   0.514E-01    0.915E-01
RMM:   4    -0.874698884275E+03   -0.47060E-03   -0.37877E-02  3299   0.197E-01    0.724E-01
RMM:   5    -0.874698791458E+03    0.92816E-04   -0.17039E-02  3326   0.138E-01    0.918E-01
RMM:   6    -0.874700260251E+03   -0.14688E-02   -0.20569E-02  3085   0.179E-01    0.614E-01
RMM:   7    -0.874699074216E+03    0.11860E-02   -0.35830E-03  2901   0.873E-02    0.377E-01
RMM:   8    -0.874698564540E+03    0.50968E-03   -0.30564E-03  2733   0.674E-02    0.180E-01
RMM:   9    -0.874698834854E+03   -0.27031E-03   -0.10942E-03  2119   0.492E-02    0.803E-02
RMM:  10    -0.874698902923E+03   -0.68070E-04   -0.60054E-04  1773   0.371E-02
  41 F= -.89550107E+03 E0= -.89549786E+03  d E =-.225983E-01  mag=    -1.9184
       N       E                     dE             d eps       ncg     rms          rms(c)
DAV:   1    -0.874674698298E+03    0.24137E-01   -0.14291E+01  2368   0.394E+00    0.835E-01
RMM:   2    -0.874706296898E+03   -0.31599E-01   -0.31615E-01  3042   0.850E-01    0.684E-01
RMM:   3    -0.874707412731E+03   -0.11158E-02   -0.26435E-02  3012   0.263E-01    0.515E-01
RMM:   4    -0.874707840740E+03   -0.42801E-03   -0.10725E-02  3353   0.983E-02    0.452E-01
RMM:   5    -0.874707678235E+03    0.16250E-03   -0.59297E-03  3219   0.788E-02    0.189E-01
RMM:   6    -0.874707931718E+03   -0.25348E-03   -0.17103E-03  2344   0.440E-02    0.871E-02
RMM:   7    -0.874708003340E+03   -0.71621E-04   -0.70491E-04  1903   0.410E-02
  42 F= -.89551156E+03 E0= -.89550837E+03  d E =-.104902E-01  mag=    -1.9182
       N       E                     dE             d eps       ncg     rms          rms(c)
DAV:   1    -0.874705354472E+03    0.25772E-02   -0.18177E+00  2496   0.141E+00    0.307E-01
RMM:   2    -0.874709540694E+03   -0.41862E-02   -0.41450E-02  3044   0.308E-01    0.270E-01
RMM:   3    -0.874709724797E+03   -0.18410E-03   -0.40792E-03  2940   0.978E-02    0.198E-01
RMM:   4    -0.874709842611E+03   -0.11781E-03   -0.15869E-03  2355   0.440E-02    0.159E-01
RMM:   5    -0.874709975182E+03   -0.13257E-03   -0.11870E-03  2058   0.463E-02    0.120E-01
RMM:   6    -0.874710013742E+03   -0.38561E-04   -0.56803E-04  1586   0.377E-02
  43 F= -.89551406E+03 E0= -.89551089E+03  d E =-.129976E-01  mag=    -1.9199
       N       E                     dE             d eps       ncg     rms          rms(c)
DAV:   1    -0.874694421052E+03    0.15554E-01   -0.72538E+00  2400   0.282E+00    0.609E-01
RMM:   2    -0.874710627557E+03   -0.16207E-01   -0.16179E-01  3070   0.609E-01    0.562E-01
RMM:   3    -0.874710983685E+03   -0.35613E-03   -0.13929E-02  3061   0.192E-01    0.381E-01
RMM:   4    -0.874711329844E+03   -0.34616E-03   -0.58298E-03  3313   0.680E-02    0.300E-01
RMM:   5    -0.874711488449E+03   -0.15861E-03   -0.35240E-03  2885   0.655E-02    0.231E-01
RMM:   6    -0.874711518158E+03   -0.29709E-04   -0.12855E-03  2095   0.512E-02    0.955E-02
RMM:   7    -0.874711578791E+03   -0.60633E-04   -0.43408E-04  1641   0.386E-02
  44 F= -.89551663E+03 E0= -.89551341E+03  d E =-.155590E-01  mag=    -1.9180
       N       E                     dE             d eps       ncg     rms          rms(c)
DAV:   1    -0.874699512921E+03    0.12005E-01   -0.69090E+00  2400   0.289E+00    0.557E-01
RMM:   2    -0.874715588504E+03   -0.16076E-01   -0.16425E-01  3024   0.658E-01    0.551E-01
RMM:   3    -0.874716303959E+03   -0.71546E-03   -0.16607E-02  3128   0.192E-01    0.384E-01
RMM:   4    -0.874716604543E+03   -0.30058E-03   -0.53620E-03  3363   0.738E-02    0.295E-01
RMM:   5    -0.874716794971E+03   -0.19043E-03   -0.36487E-03  3113   0.674E-02    0.344E-01
RMM:   6    -0.874716735042E+03    0.59929E-04   -0.21601E-03  2555   0.599E-02    0.137E-01
RMM:   7    -0.874716821777E+03   -0.86735E-04   -0.45324E-04  1645   0.389E-02
  45 F= -.89552298E+03 E0= -.89552005E+03  d E =-.635347E-02  mag=    -1.9242
       N       E                     dE             d eps       ncg     rms          rms(c)
DAV:   1    -0.874714693989E+03    0.20411E-02   -0.12972E+00  2464   0.125E+00    0.245E-01
RMM:   2    -0.874717803942E+03   -0.31100E-02   -0.31948E-02  3043   0.291E-01    0.173E-01
RMM:   3    -0.874718071209E+03   -0.26727E-03   -0.35547E-03  3122   0.807E-02    0.146E-01
RMM:   4    -0.874718147987E+03   -0.76777E-04   -0.11025E-03  2162   0.390E-02    0.139E-01
RMM:   5    -0.874718209744E+03   -0.61757E-04   -0.67681E-04  1817   0.426E-02
  46 F= -.89552485E+03 E0= -.89552189E+03  d E =-.822325E-02  mag=    -1.9239
       N       E                     dE             d eps       ncg     rms          rms(c)
DAV:   1    -0.874706377536E+03    0.11770E-01   -0.51587E+00  2400   0.249E+00    0.487E-01
RMM:   2    -0.874718322912E+03   -0.11945E-01   -0.12355E-01  3041   0.570E-01    0.469E-01
RMM:   3    -0.874718893476E+03   -0.57056E-03   -0.12841E-02  3198   0.166E-01    0.332E-01
RMM:   4    -0.874719136391E+03   -0.24292E-03   -0.42092E-03  3299   0.653E-02    0.259E-01
RMM:   5    -0.874719280562E+03   -0.14417E-03   -0.29254E-03  3027   0.619E-02    0.259E-01
RMM:   6    -0.874719322987E+03   -0.42425E-04   -0.16973E-03  2384   0.535E-02    0.121E-01
RMM:   7    -0.874719366502E+03   -0.43515E-04   -0.39024E-04  1611   0.384E-02
  47 F= -.89552697E+03 E0= -.89552423E+03  d E =-.103454E-01  mag=    -1.9272
       N       E                     dE             d eps       ncg     rms          rms(c)
DAV:   1    -0.874704627038E+03    0.14696E-01   -0.77070E+00  2384   0.308E+00    0.571E-01
RMM:   2    -0.874722071315E+03   -0.17444E-01   -0.17806E-01  3009   0.690E-01    0.385E-01
RMM:   3    -0.874723337578E+03   -0.12663E-02   -0.18313E-02  3200   0.194E-01    0.309E-01
RMM:   4    -0.874723620756E+03   -0.28318E-03   -0.58314E-03  3285   0.782E-02    0.259E-01
RMM:   5    -0.874723709990E+03   -0.89234E-04   -0.30399E-03  2958   0.577E-02    0.116E-01
RMM:   6    -0.874723906507E+03   -0.19652E-03   -0.11514E-03  2047   0.410E-02    0.685E-02
RMM:   7    -0.874723967951E+03   -0.61445E-04   -0.49282E-04  1668   0.381E-02
  48 F= -.89553267E+03 E0= -.89552992E+03  d E =-.569884E-02  mag=    -1.9310
       N       E                     dE             d eps       ncg     rms          rms(c)
DAV:   1    -0.874722739757E+03    0.11667E-02   -0.68644E-01  2608   0.922E-01    0.176E-01
RMM:   2    -0.874724387658E+03   -0.16479E-02   -0.16723E-02  3004   0.210E-01    0.127E-01
RMM:   3    -0.874724531628E+03   -0.14397E-03   -0.18580E-03  2468   0.618E-02    0.101E-01
RMM:   4    -0.874724595391E+03   -0.63762E-04   -0.71048E-04  1854   0.382E-02
  49 F= -.89553363E+03 E0= -.89553094E+03  d E =-.665400E-02  mag=    -1.9343
       N       E                     dE             d eps       ncg     rms          rms(c)
DAV:   1    -0.874718029806E+03    0.65018E-02   -0.27305E+00  2448   0.184E+00    0.349E-01
RMM:   2    -0.874724101567E+03   -0.60718E-02   -0.62827E-02  3015   0.410E-01    0.240E-01
RMM:   3    -0.874724597063E+03   -0.49550E-03   -0.71000E-03  3228   0.117E-01    0.189E-01
RMM:   4    -0.874724739483E+03   -0.14242E-03   -0.24605E-03  2692   0.525E-02    0.159E-01
RMM:   5    -0.874724852706E+03   -0.11322E-03   -0.13010E-03  2223   0.459E-02    0.665E-02
RMM:   6    -0.874724953835E+03   -0.10113E-03   -0.60624E-04  1619   0.370E-02    0.396E-02
RMM:   7    -0.874724990117E+03   -0.36282E-04   -0.23734E-04  1489   0.325E-02
  50 F= -.89553468E+03 E0= -.89553210E+03  d E =-.770483E-02  mag=    -1.9372
       N       E                     dE             d eps       ncg     rms          rms(c)
DAV:   1    -0.874703159273E+03    0.21795E-01   -0.10730E+01  2368   0.368E+00    0.700E-01
RMM:   2    -0.874727379220E+03   -0.24220E-01   -0.25130E-01  3021   0.818E-01    0.484E-01
RMM:   3    -0.874728985386E+03   -0.16062E-02   -0.25786E-02  3153   0.230E-01    0.384E-01
RMM:   4    -0.874729287450E+03   -0.30206E-03   -0.75970E-03  3402   0.920E-02    0.292E-01
RMM:   5    -0.874729348666E+03   -0.61216E-04   -0.43367E-03  3194   0.685E-02    0.180E-01
RMM:   6    -0.874729561202E+03   -0.21254E-03   -0.19229E-03  2543   0.506E-02    0.110E-01
RMM:   7    -0.874729583585E+03   -0.22383E-04   -0.57550E-04  1752   0.375E-02
  51 F= -.89553979E+03 E0= -.89553755E+03  d E =-.511881E-02  mag=    -1.9460
       N       E                     dE             d eps       ncg     rms          rms(c)
DAV:   1    -0.874728390220E+03    0.11710E-02   -0.73540E-01  2656   0.964E-01    0.187E-01
RMM:   2    -0.874730148593E+03   -0.17584E-02   -0.18052E-02  3016   0.218E-01    0.117E-01
RMM:   3    -0.874730321164E+03   -0.17257E-03   -0.20553E-03  2544   0.621E-02    0.972E-02
RMM:   4    -0.874730394672E+03   -0.73508E-04   -0.72400E-04  1866   0.386E-02
  52 F= -.89554074E+03 E0= -.89553842E+03  d E =-.606766E-02  mag=    -1.9444
       N       E                     dE             d eps       ncg     rms          rms(c)
DAV:   1    -0.874724185341E+03    0.61358E-02   -0.29195E+00  2368   0.192E+00    0.379E-01
RMM:   2    -0.874730632513E+03   -0.64472E-02   -0.67932E-02  3006   0.426E-01    0.254E-01
RMM:   3    -0.874731165641E+03   -0.53313E-03   -0.78264E-03  3184   0.124E-01    0.203E-01
RMM:   4    -0.874731304007E+03   -0.13837E-03   -0.24486E-03  2663   0.526E-02    0.157E-01
RMM:   5    -0.874731407465E+03   -0.10346E-03   -0.14568E-03  2277   0.483E-02    0.670E-02
RMM:   6    -0.874731512767E+03   -0.10530E-03   -0.64310E-04  1634   0.385E-02    0.433E-02
RMM:   7    -0.874731542461E+03   -0.29694E-04   -0.21204E-04  1488   0.341E-02
  53 F= -.89554217E+03 E0= -.89554005E+03  d E =-.749183E-02  mag=    -1.9493
       N       E                     dE             d eps       ncg     rms          rms(c)
DAV:   1    -0.874702134635E+03    0.29378E-01   -0.11712E+01  2368   0.384E+00    0.733E-01
RMM:   2    -0.874728682209E+03   -0.26548E-01   -0.27620E-01  3019   0.858E-01    0.469E-01
RMM:   3    -0.874730550633E+03   -0.18684E-02   -0.28584E-02  3189   0.242E-01    0.378E-01
RMM:   4    -0.874730883000E+03   -0.33237E-03   -0.81394E-03  3405   0.960E-02    0.293E-01
RMM:   5    -0.874730961983E+03   -0.78983E-04   -0.45826E-03  3246   0.712E-02    0.137E-01
RMM:   6    -0.874731178898E+03   -0.21691E-03   -0.16856E-03  2436   0.435E-02    0.712E-02
RMM:   7    -0.874731248547E+03   -0.69649E-04   -0.64792E-04  1805   0.389E-02
  54 F= -.89554241E+03 E0= -.89554047E+03  d E =-.773604E-02  mag=    -1.9549
       N       E                     dE             d eps       ncg     rms          rms(c)
DAV:   1    -0.874718722215E+03    0.12457E-01   -0.57990E+00  2368   0.271E+00    0.515E-01
RMM:   2    -0.874731329381E+03   -0.12607E-01   -0.13251E-01  3014   0.596E-01    0.343E-01
RMM:   3    -0.874731975987E+03   -0.64661E-03   -0.11638E-02  3008   0.164E-01    0.262E-01
RMM:   4    -0.874732044376E+03   -0.68388E-04   -0.28273E-03  2359   0.593E-02    0.199E-01
RMM:   5    -0.874732086057E+03   -0.41681E-04   -0.19219E-03  2221   0.576E-02    0.930E-02
RMM:   6    -0.874732170692E+03   -0.84635E-04   -0.50535E-04  1534   0.379E-02
  55 F= -.89554296E+03 E0= -.89554070E+03  d E =-.828398E-02  mag=    -1.9486
       N       E                     dE             d eps       ncg     rms          rms(c)
DAV:   1    -0.874707223738E+03    0.24862E-01   -0.11227E+01  2368   0.391E+00    0.700E-01
RMM:   2    -0.874733812277E+03   -0.26589E-01   -0.28242E-01  3023   0.929E-01    0.428E-01
RMM:   3    -0.874736253871E+03   -0.24416E-02   -0.32671E-02  3212   0.260E-01    0.350E-01
RMM:   4    -0.874736705846E+03   -0.45198E-03   -0.90923E-03  3419   0.101E-01    0.256E-01
RMM:   5    -0.874736852737E+03   -0.14689E-03   -0.42214E-03  3230   0.723E-02    0.141E-01
RMM:   6    -0.874736995207E+03   -0.14247E-03   -0.15178E-03  2267   0.449E-02    0.700E-02
RMM:   7    -0.874737090836E+03   -0.95629E-04   -0.75773E-04  1928   0.407E-02
  56 F= -.89554871E+03 E0= -.89554629E+03  d E =-.574619E-02  mag=    -1.9438
       N       E                     dE             d eps       ncg     rms          rms(c)
DAV:   1    -0.874734916611E+03    0.20786E-02   -0.98928E-01  2432   0.116E+00    0.217E-01
RMM:   2    -0.874737420675E+03   -0.25041E-02   -0.26269E-02  3019   0.281E-01    0.135E-01
RMM:   3    -0.874737778977E+03   -0.35830E-03   -0.40279E-03  3279   0.816E-02    0.114E-01
RMM:   4    -0.874737880702E+03   -0.10173E-03   -0.12558E-03  2209   0.371E-02    0.890E-02
RMM:   5    -0.874737962473E+03   -0.81771E-04   -0.64330E-04  1688   0.392E-02
  57 F= -.89554983E+03 E0= -.89554763E+03  d E =-.686839E-02  mag=    -1.9440
       N       E                     dE             d eps       ncg     rms          rms(c)
DAV:   1    -0.874727508856E+03    0.10372E-01   -0.39358E+00  2368   0.232E+00    0.419E-01
RMM:   2    -0.874737022011E+03   -0.95132E-02   -0.10119E-01  3029   0.557E-01    0.276E-01
RMM:   3    -0.874738173418E+03   -0.11514E-02   -0.14155E-02  3360   0.159E-01    0.242E-01
RMM:   4    -0.874738443360E+03   -0.26994E-03   -0.44226E-03  3396   0.628E-02    0.180E-01
RMM:   5    -0.874738579353E+03   -0.13599E-03   -0.22458E-03  2806   0.543E-02    0.887E-02
RMM:   6    -0.874738727131E+03   -0.14778E-03   -0.11032E-03  1983   0.382E-02    0.558E-02
RMM:   7    -0.874738770832E+03   -0.43701E-04   -0.42467E-04  1618   0.381E-02
  58 F= -.89555114E+03 E0= -.89554865E+03  d E =-.817846E-02  mag=    -1.9401
       N       E                     dE             d eps       ncg     rms          rms(c)
DAV:   1    -0.874708348276E+03    0.30379E-01   -0.14240E+01  2368   0.434E+00    0.781E-01
RMM:   2    -0.874741028659E+03   -0.32680E-01   -0.34807E-01  3039   0.985E-01    0.638E-01
RMM:   3    -0.874743533470E+03   -0.25048E-02   -0.39316E-02  3181   0.276E-01    0.470E-01
RMM:   4    -0.874743911357E+03   -0.37789E-03   -0.11156E-02  3422   0.110E-01    0.351E-01
RMM:   5    -0.874744117370E+03   -0.20601E-03   -0.62317E-03  3288   0.820E-02    0.298E-01
RMM:   6    -0.874744343727E+03   -0.22636E-03   -0.33802E-03  2923   0.704E-02    0.204E-01
RMM:   7    -0.874744301658E+03    0.42069E-04   -0.10356E-03  2037   0.421E-02    0.831E-02
RMM:   8    -0.874744401233E+03   -0.99575E-04   -0.74280E-04  1914   0.396E-02
  59 F= -.89555698E+03 E0= -.89555388E+03  d E =-.584418E-02  mag=    -1.9301
       N       E                     dE             d eps       ncg     rms          rms(c)
DAV:   1    -0.874744128866E+03    0.17279E-03   -0.26088E-01  2832   0.591E-01    0.125E-01
RMM:   2    -0.874744815185E+03   -0.68632E-03   -0.71493E-03  2948   0.140E-01    0.108E-01
RMM:   3    -0.874744870753E+03   -0.55568E-04   -0.87248E-04  1906   0.427E-02
  60 F= -.89555748E+03 E0= -.89555486E+03  d E =-.634280E-02  mag=    -1.9315
       N       E                     dE             d eps       ncg     rms          rms(c)
DAV:   1    -0.874742744244E+03    0.20709E-02   -0.22047E+00  2368   0.177E+00    0.321E-01
RMM:   2    -0.874747980462E+03   -0.52362E-02   -0.57839E-02  2937   0.445E-01    0.245E-01
RMM:   3    -0.874748701112E+03   -0.72065E-03   -0.88094E-03  3266   0.126E-01    0.198E-01
RMM:   4    -0.874748781519E+03   -0.80406E-04   -0.18985E-03  2706   0.566E-02    0.190E-01
RMM:   5    -0.874748872363E+03   -0.90844E-04   -0.15344E-03  2489   0.494E-02    0.820E-02
RMM:   6    -0.874748951022E+03   -0.78659E-04   -0.49276E-04  1576   0.346E-02
  61 F= -.89556155E+03 E0= -.89555904E+03  d E =-.407124E-02  mag=    -1.9339
       N       E                     dE             d eps       ncg     rms          rms(c)
DAV:   1    -0.874748404401E+03    0.46796E-03   -0.49849E-01  2432   0.845E-01    0.157E-01
RMM:   2    -0.874749727643E+03   -0.13232E-02   -0.14569E-02  3016   0.214E-01    0.115E-01
RMM:   3    -0.874749901911E+03   -0.17427E-03   -0.19844E-03  2781   0.610E-02    0.993E-02
RMM:   4    -0.874749960380E+03   -0.58470E-04   -0.68529E-04  1913   0.383E-02
  62 F= -.89556256E+03 E0= -.89556008E+03  d E =-.507630E-02  mag=    -1.9349
       N       E                     dE             d eps       ncg     rms          rms(c)
DAV:   1    -0.874749894032E+03    0.78791E-05   -0.11350E+00  2368   0.125E+00    0.289E-01
RMM:   2    -0.874752530458E+03   -0.26364E-02   -0.29254E-02  2965   0.297E-01    0.268E-01
RMM:   3    -0.874752776001E+03   -0.24554E-03   -0.41806E-03  3028   0.882E-02    0.192E-01
RMM:   4    -0.874752835452E+03   -0.59451E-04   -0.11057E-03  2149   0.428E-02    0.151E-01
RMM:   5    -0.874752909771E+03   -0.74320E-04   -0.84692E-04  1900   0.445E-02
  63 F= -.89556541E+03 E0= -.89556236E+03  d E =-.285217E-02  mag=    -1.9330
       N       E                     dE             d eps       ncg     rms          rms(c)
DAV:   1    -0.874729825542E+03    0.23010E-01   -0.10226E+01  2368   0.374E+00    0.854E-01
RMM:   2    -0.874753166817E+03   -0.23341E-01   -0.25785E-01  3033   0.871E-01    0.751E-01
RMM:   3    -0.874755150612E+03   -0.19838E-02   -0.32746E-02  3138   0.255E-01    0.545E-01
RMM:   4    -0.874755437283E+03   -0.28667E-03   -0.91781E-03  3343   0.109E-01    0.416E-01
RMM:   5    -0.874755716648E+03   -0.27937E-03   -0.61732E-03  3307   0.833E-02    0.324E-01
RMM:   6    -0.874755694287E+03    0.22362E-04   -0.25026E-03  2765   0.633E-02    0.157E-01
RMM:   7    -0.874755756042E+03   -0.61756E-04   -0.98487E-04  2157   0.436E-02
  64 F= -.89556797E+03 E0= -.89556560E+03  d E =-.540797E-02  mag=    -1.9380
       N       E                     dE             d eps       ncg     rms          rms(c)
DAV:   1    -0.874753107204E+03    0.25871E-02   -0.12992E+00  2496   0.133E+00    0.342E-01
RMM:   2    -0.874756004276E+03   -0.28971E-02   -0.32887E-02  2975   0.310E-01    0.350E-01
RMM:   3    -0.874755935878E+03    0.68398E-04   -0.31128E-03  2615   0.902E-02    0.201E-01
RMM:   4    -0.874756008518E+03   -0.72640E-04   -0.10917E-03  1955   0.416E-02    0.156E-01
RMM:   5    -0.874756149612E+03   -0.14109E-03   -0.85821E-04  1866   0.498E-02    0.216E-01
[...]
RMM:   6    -0.874776206971E+03    0.66168E-03   -0.82664E-04  1864   0.497E-02    0.509E-02
RMM:   7    -0.874776507852E+03   -0.30088E-03   -0.23896E-04  1403   0.314E-02    0.540E-02
RMM:   8    -0.874776551408E+03   -0.43555E-04   -0.12467E-04  1350   0.241E-02
  74 F= -.89558949E+03 E0= -.89558511E+03  d E =-.882444E-02  mag=    -1.8726
       N       E                     dE             d eps       ncg     rms          rms(c)
DAV:   1    -0.874769716883E+03    0.67910E-02   -0.41179E+00  2368   0.238E+00    0.454E-01
RMM:   2    -0.874780309715E+03   -0.10593E-01   -0.11391E-01  2998   0.604E-01    0.604E-01
RMM:   3    -0.874780976964E+03   -0.66725E-03   -0.15608E-02  3143   0.167E-01    0.335E-01
RMM:   4    -0.874781266623E+03   -0.28966E-03   -0.34236E-03  3054   0.712E-02    0.240E-01
RMM:   5    -0.874781425403E+03   -0.15878E-03   -0.28085E-03  2897   0.587E-02    0.229E-01
RMM:   6    -0.874781399482E+03    0.25921E-04   -0.83460E-04  1844   0.398E-02
  75 F= -.89559437E+03 E0= -.89559004E+03  d E =-.487784E-02  mag=    -1.8602
       N       E                     dE             d eps       ncg     rms          rms(c)
DAV:   1    -0.874773641871E+03    0.77835E-02   -0.31016E+00  2368   0.207E+00    0.400E-01
RMM:   2    -0.874782210320E+03   -0.85684E-02   -0.89904E-02  3031   0.533E-01    0.617E-01
RMM:   3    -0.874782656442E+03   -0.44612E-03   -0.14011E-02  3314   0.151E-01    0.286E-01
RMM:   4    -0.874783147443E+03   -0.49100E-03   -0.38346E-03  3339   0.639E-02    0.242E-01
RMM:   5    -0.874783414000E+03   -0.26656E-03   -0.31571E-03  3048   0.635E-02    0.225E-01
RMM:   6    -0.874783407404E+03    0.65958E-05   -0.10188E-03  2006   0.397E-02    0.110E-01
RMM:   7    -0.874783509118E+03   -0.10171E-03   -0.65213E-04  1901   0.440E-02    0.863E-02
RMM:   8    -0.874783533120E+03   -0.24002E-04   -0.37747E-04  1528   0.341E-02
  76 F= -.89559653E+03 E0= -.89559128E+03  d E =-.703694E-02  mag=    -1.8442
       N       E                     dE             d eps       ncg     rms          rms(c)
DAV:   1    -0.874781699423E+03    0.18097E-02   -0.13964E+00  2368   0.144E+00    0.285E-01
RMM:   2    -0.874785761703E+03   -0.40623E-02   -0.44843E-02  3026   0.393E-01    0.424E-01
RMM:   3    -0.874786083892E+03   -0.32219E-03   -0.74668E-03  3277   0.114E-01    0.216E-01
RMM:   4    -0.874786254220E+03   -0.17033E-03   -0.17199E-03  2665   0.485E-02    0.169E-01
RMM:   5    -0.874786367323E+03   -0.11310E-03   -0.17680E-03  2605   0.539E-02    0.113E-01
RMM:   6    -0.874786419307E+03   -0.51983E-04   -0.52091E-04  1618   0.352E-02
  77 F= -.89559993E+03 E0= -.89559501E+03  d E =-.339684E-02  mag=    -1.8441
       N       E                     dE             d eps       ncg     rms          rms(c)
DAV:   1    -0.874765989599E+03    0.20378E-01   -0.66548E+00  2368   0.314E+00    0.593E-01
RMM:   2    -0.874785424214E+03   -0.19435E-01   -0.21399E-01  3049   0.864E-01    0.881E-01
RMM:   3    -0.874787242909E+03   -0.18187E-02   -0.35114E-02  3316   0.249E-01    0.477E-01
RMM:   4    -0.874787905256E+03   -0.66235E-03   -0.90916E-03  3509   0.106E-01    0.363E-01
RMM:   5    -0.874788442487E+03   -0.53723E-03   -0.98216E-03  3376   0.111E-01    0.389E-01
RMM:   6    -0.874788264477E+03    0.17801E-03   -0.24536E-03  2875   0.560E-02    0.154E-01
RMM:   7    -0.874788450251E+03   -0.18577E-03   -0.23085E-03  2927   0.610E-02    0.900E-02
RMM:   8    -0.874788546362E+03   -0.96110E-04   -0.88911E-04  2032   0.385E-02
  78 F= -.89560317E+03 E0= -.89559767E+03  d E =-.664027E-02  mag=    -1.8384
       N       E                     dE             d eps       ncg     rms          rms(c)
DAV:   1    -0.874787861018E+03    0.58923E-03   -0.31336E-01  2768   0.684E-01    0.130E-01
RMM:   2    -0.874788654875E+03   -0.79386E-03   -0.98597E-03  2932   0.182E-01    0.103E-01
RMM:   3    -0.874788744647E+03   -0.89772E-04   -0.10719E-03  2133   0.507E-02    0.111E-01
RMM:   4    -0.874788744149E+03    0.49731E-06   -0.23513E-04  1491   0.343E-02
  79 F= -.89560312E+03 E0= -.89559802E+03  d E =-.659510E-02  mag=    -1.8389
       N       E                     dE             d eps       ncg     rms          rms(c)
DAV:   1    -0.874788282150E+03    0.46250E-03   -0.14795E-01  2496   0.472E-01    0.101E-01
RMM:   2    -0.874788856355E+03   -0.57421E-03   -0.52674E-03  2890   0.136E-01    0.290E-01
RMM:   3    -0.874788661710E+03    0.19464E-03   -0.54994E-04  1780   0.420E-02    0.477E-02
RMM:   4    -0.874788781261E+03   -0.11955E-03   -0.17479E-04  1458   0.357E-02    0.411E-02
RMM:   5    -0.874788814020E+03   -0.32759E-04   -0.13101E-04  1397   0.247E-02
  80 F= -.89560336E+03 E0= -.89559795E+03  d E =-.683113E-02  mag=    -1.8395
       N       E                     dE             d eps       ncg     rms          rms(c)
DAV:   1    -0.874785975771E+03    0.28055E-02   -0.18361E+00  2368   0.157E+00    0.292E-01
RMM:   2    -0.874790534714E+03   -0.45589E-02   -0.49997E-02  3012   0.399E-01    0.273E-01
RMM:   3    -0.874791046717E+03   -0.51200E-03   -0.69352E-03  3144   0.114E-01    0.360E-01
RMM:   4    -0.874790936983E+03    0.10973E-03   -0.17200E-03  2445   0.520E-02    0.159E-01
RMM:   5    -0.874791077569E+03   -0.14059E-03   -0.11689E-03  2256   0.461E-02    0.121E-01
RMM:   6    -0.874791170924E+03   -0.93355E-04   -0.67992E-04  1702   0.401E-02
  81 F= -.89560616E+03 E0= -.89560062E+03  d E =-.280127E-02  mag=    -1.8383
       N       E                     dE             d eps       ncg     rms          rms(c)
DAV:   1    -0.874763932125E+03    0.27145E-01   -0.95594E+00  2368   0.358E+00    0.678E-01
RMM:   2    -0.874787519418E+03   -0.23587E-01   -0.26144E-01  3020   0.909E-01    0.433E-01
RMM:   3    -0.874790511854E+03   -0.29924E-02   -0.35613E-02  3326   0.247E-01    0.609E-01
RMM:   4    -0.874790628313E+03   -0.11646E-03   -0.93285E-03  3467   0.104E-01    0.344E-01
RMM:   5    -0.874790871969E+03   -0.24366E-03   -0.61705E-03  3400   0.819E-02    0.238E-01
RMM:   6    -0.874791046532E+03   -0.17456E-03   -0.25123E-03  2929   0.565E-02    0.110E-01
RMM:   7    -0.874791180513E+03   -0.13398E-03   -0.12051E-03  2385   0.429E-02    0.757E-02
RMM:   8    -0.874791220926E+03   -0.40413E-04   -0.58555E-04  1720   0.374E-02
  82 F= -.89560723E+03 E0= -.89560184E+03  d E =-.386702E-02  mag=    -1.8394
       N       E                     dE             d eps       ncg     rms          rms(c)
DAV:   1    -0.874786879645E+03    0.43009E-02   -0.21251E+00  2368   0.169E+00    0.309E-01
RMM:   2    -0.874791778184E+03   -0.48985E-02   -0.55415E-02  3002   0.422E-01    0.213E-01
RMM:   3    -0.874792317895E+03   -0.53971E-03   -0.69371E-03  3032   0.112E-01    0.183E-01
RMM:   4    -0.874792393962E+03   -0.76067E-04   -0.11956E-03  1993   0.504E-02    0.253E-01
RMM:   5    -0.874792301032E+03    0.92929E-04   -0.97382E-04  2060   0.480E-02
  83 F= -.89560783E+03 E0= -.89560257E+03  d E =-.446779E-02  mag=    -1.8423
       N       E                     dE             d eps       ncg     rms          rms(c)
DAV:   1    -0.874787748643E+03    0.46453E-02   -0.22040E+00  2368   0.181E+00    0.369E-01
RMM:   2    -0.874793921359E+03   -0.61727E-02   -0.69402E-02  2935   0.512E-01    0.283E-01
RMM:   3    -0.874795017807E+03   -0.10964E-02   -0.12167E-02  3184   0.146E-01    0.318E-01
RMM:   4    -0.874794960269E+03    0.57538E-04   -0.25960E-03  2896   0.704E-02    0.240E-01
RMM:   5    -0.874795115687E+03   -0.15542E-03   -0.20999E-03  2888   0.514E-02    0.228E-01
RMM:   6    -0.874795093736E+03    0.21951E-04   -0.70365E-04  1793   0.407E-02
  84 F= -.89561061E+03 E0= -.89560597E+03  d E =-.277701E-02  mag=    -1.8440
       N       E                     dE             d eps       ncg     rms          rms(c)
DAV:   1    -0.874793132824E+03    0.19829E-02   -0.67334E-01  2432   0.100E+00    0.235E-01
RMM:   2    -0.874795312878E+03   -0.21801E-02   -0.23998E-02  2981   0.296E-01    0.371E-01
RMM:   3    -0.874795512351E+03   -0.19947E-03   -0.52391E-03  3376   0.888E-02    0.162E-01
RMM:   4    -0.874795701505E+03   -0.18915E-03   -0.13118E-03  2349   0.413E-02    0.140E-01
RMM:   5    -0.874795842354E+03   -0.14085E-03   -0.11679E-03  2295   0.472E-02    0.185E-01
RMM:   6    -0.874795819245E+03    0.23109E-04   -0.53744E-04  1586   0.393E-02
  85 F= -.89561132E+03 E0= -.89560641E+03  d E =-.349370E-02  mag=    -1.8444
       N       E                     dE             d eps       ncg     rms          rms(c)
DAV:   1    -0.874795126538E+03    0.71582E-03   -0.72693E-01  2464   0.102E+00    0.202E-01
RMM:   2    -0.874797005747E+03   -0.18792E-02   -0.20827E-02  2981   0.264E-01    0.123E-01
RMM:   3    -0.874797289495E+03   -0.28375E-03   -0.32637E-03  3239   0.707E-02    0.106E-01
RMM:   4    -0.874797331635E+03   -0.42140E-04   -0.63018E-04  1832   0.350E-02
  86 F= -.89561290E+03 E0= -.89560795E+03  d E =-.157474E-02  mag=    -1.8427
       N       E                     dE             d eps       ncg     rms          rms(c)
DAV:   1    -0.874796580620E+03    0.70887E-03   -0.55078E-01  2400   0.885E-01    0.239E-01
RMM:   2    -0.874798157736E+03   -0.15771E-02   -0.16393E-02  3005   0.230E-01    0.363E-01
RMM:   3    -0.874798059765E+03    0.97970E-04   -0.27681E-03  3015   0.733E-02    0.171E-01
RMM:   4    -0.874798211687E+03   -0.15192E-03   -0.73672E-04  1940   0.360E-02    0.119E-01
RMM:   5    -0.874798280662E+03   -0.68975E-04   -0.42667E-04  1570   0.388E-02
  87 F= -.89561390E+03 E0= -.89560890E+03  d E =-.257808E-02  mag=    -1.8409
       N       E                     dE             d eps       ncg     rms          rms(c)
DAV:   1    -0.874792520232E+03    0.56915E-02   -0.21929E+00  2368   0.176E+00    0.372E-01
RMM:   2    -0.874798323633E+03   -0.58034E-02   -0.62014E-02  3007   0.449E-01    0.517E-01
RMM:   3    -0.874798532603E+03   -0.20897E-03   -0.96652E-03  3245   0.135E-01    0.276E-01
RMM:   4    -0.874798832552E+03   -0.29995E-03   -0.27044E-03  3130   0.583E-02    0.176E-01
RMM:   5    -0.874798954214E+03   -0.12166E-03   -0.14822E-03  2578   0.452E-02    0.104E-01
RMM:   6    -0.874799096704E+03   -0.14249E-03   -0.75131E-04  1903   0.422E-02    0.155E-01
RMM:   7    -0.874799060375E+03    0.36328E-04   -0.35698E-04  1527   0.393E-02
  88 F= -.89561479E+03 E0= -.89560959E+03  d E =-.346640E-02  mag=    -1.8322
       N       E                     dE             d eps       ncg     rms          rms(c)
DAV:   1    -0.874797454270E+03    0.16424E-02   -0.91140E-01  2432   0.111E+00    0.208E-01
RMM:   2    -0.874799810223E+03   -0.23560E-02   -0.24629E-02  3008   0.269E-01    0.334E-01
RMM:   3    -0.874799752641E+03    0.57582E-04   -0.29668E-03  2966   0.782E-02    0.142E-01
RMM:   4    -0.874799917874E+03   -0.16523E-03   -0.73736E-04  1935   0.368E-02    0.112E-01
RMM:   5    -0.874800042337E+03   -0.12446E-03   -0.51634E-04  1688   0.416E-02    0.218E-01
RMM:   6    -0.874799986540E+03    0.55797E-04   -0.57034E-04  1610   0.400E-02
  89 F= -.89561596E+03 E0= -.89561039E+03  d E =-.116961E-02  mag=    -1.8305
       N       E                     dE             d eps       ncg     rms          rms(c)
DAV:   1    -0.874786881978E+03    0.13160E-01   -0.49044E+00  2368   0.258E+00    0.532E-01
RMM:   2    -0.874800387616E+03   -0.13506E-01   -0.13514E-01  3015   0.639E-01    0.946E-01
RMM:   3    -0.874798910087E+03    0.14775E-02   -0.16519E-02  3078   0.197E-01    0.365E-01
RMM:   4    -0.874799874740E+03   -0.96465E-03   -0.57801E-03  3382   0.785E-02    0.430E-01
RMM:   5    -0.874801201066E+03   -0.13263E-02   -0.43550E-03  2909   0.862E-02    0.771E-01
RMM:   6    -0.874799824280E+03    0.13768E-02   -0.23171E-03  2744   0.713E-02    0.434E-01
RMM:   7    -0.874799726107E+03    0.98174E-04   -0.11858E-03  2188   0.449E-02    0.110E-01
RMM:   8    -0.874800169806E+03   -0.44370E-03   -0.37778E-04  1606   0.412E-02    0.933E-02
RMM:   9    -0.874800164520E+03    0.52867E-05   -0.21998E-04  1461   0.321E-02
  90 F= -.89561672E+03 E0= -.89561113E+03  d E =-.192991E-02  mag=    -1.8263
       N       E                     dE             d eps       ncg     rms          rms(c)
DAV:   1    -0.874798276687E+03    0.18931E-02   -0.94454E-01  2432   0.113E+00    0.218E-01
RMM:   2    -0.874800508048E+03   -0.22314E-02   -0.24264E-02  2977   0.272E-01    0.279E-01
RMM:   3    -0.874800544731E+03   -0.36683E-04   -0.24248E-03  2523   0.777E-02    0.207E-01
RMM:   4    -0.874800599827E+03   -0.55096E-04   -0.54620E-04  1688   0.395E-02
  91 F= -.89561691E+03 E0= -.89561164E+03  d E =-.211778E-02  mag=    -1.8341
       N       E                     dE             d eps       ncg     rms          rms(c)
DAV:   1    -0.874800253004E+03    0.29173E-03   -0.21666E-01  2448   0.547E-01    0.459E-01
RMM:   2    -0.874804044211E+03   -0.37912E-02   -0.18133E-02  3027   0.193E-01    0.109E+00
RMM:   3    -0.874799865736E+03    0.41785E-02   -0.30708E-03  2181   0.105E-01    0.389E-01
RMM:   4    -0.874800181990E+03   -0.31625E-03   -0.18642E-03  2201   0.482E-02    0.110E-01
RMM:   5    -0.874800589772E+03   -0.40778E-03   -0.15980E-04  1381   0.370E-02    0.555E-02
RMM:   6    -0.874800620592E+03   -0.30820E-04   -0.14966E-04  1389   0.235E-02
  92 F= -.89561704E+03 E0= -.89561114E+03  d E =-.225608E-02  mag=    -1.8235
       N       E                     dE             d eps       ncg     rms          rms(c)
DAV:   1    -0.874798175276E+03    0.24145E-02   -0.11868E+00  2368   0.130E+00    0.291E-01
RMM:   2    -0.874801134526E+03   -0.29592E-02   -0.31519E-02  3002   0.312E-01    0.315E-01
RMM:   3    -0.874801414321E+03   -0.27980E-03   -0.44630E-03  3016   0.898E-02    0.251E-01
RMM:   4    -0.874801424631E+03   -0.10310E-04   -0.89140E-04  1999   0.470E-02
  93 F= -.89561811E+03 E0= -.89561165E+03  d E =-.106522E-02  mag=    -1.8134
       N       E                     dE             d eps       ncg     rms          rms(c)
DAV:   1    -0.874801442374E+03   -0.28053E-04   -0.18727E-02  3120   0.171E-01    0.954E-02
RMM:   2    -0.874801621003E+03   -0.17863E-03   -0.84622E-04  2054   0.530E-02    0.215E-01
RMM:   3    -0.874801513701E+03    0.10730E-03   -0.22370E-04  1457   0.276E-02    0.101E-01
RMM:   4    -0.874801622472E+03   -0.10877E-03   -0.21481E-04  1403   0.284E-02    0.185E-01
RMM:   5    -0.874801597933E+03    0.24538E-04   -0.23024E-04  1378   0.273E-02
  94 F= -.89561832E+03 E0= -.89561225E+03  d E =-.127170E-02  mag=    -1.8171
       N       E                     dE             d eps       ncg     rms          rms(c)
DAV:   1    -0.874801462644E+03    0.15983E-03   -0.76491E-02  2448   0.330E-01    0.898E-02
RMM:   2    -0.874801747858E+03   -0.28521E-03   -0.24540E-03  2661   0.831E-02    0.172E-01
RMM:   3    -0.874801680780E+03    0.67078E-04   -0.23724E-04  1459   0.332E-02
  95 F= -.89561847E+03 E0= -.89561242E+03  d E =-.142094E-02  mag=    -1.8157
       N       E                     dE             d eps       ncg     rms          rms(c)
DAV:   1    -0.874801708657E+03    0.39202E-04   -0.17707E-02  2784   0.162E-01    0.804E-02
RMM:   2    -0.874801834922E+03   -0.12627E-03   -0.56117E-04  1742   0.443E-02    0.230E-01
RMM:   3    -0.874801686297E+03    0.14863E-03   -0.14214E-04  1282   0.317E-02    0.293E-02
RMM:   4    -0.874801793053E+03   -0.10676E-03   -0.92209E-05  1208   0.177E-02    0.550E-02
RMM:   5    -0.874801804690E+03   -0.11637E-04   -0.73814E-05  1184   0.171E-02
  96 F= -.89561856E+03 E0= -.89561259E+03  d E =-.151274E-02  mag=    -1.8132
       N       E                     dE             d eps       ncg     rms          rms(c)
DAV:   1    -0.874801838816E+03   -0.45764E-04   -0.71623E-03  2592   0.101E-01    0.520E-02
RMM:   2    -0.874801897944E+03   -0.59127E-04   -0.23309E-04  1314   0.294E-02
  97 F= -.89561867E+03 E0= -.89561218E+03  d E =-.162638E-02  mag=    -1.8144
       N       E                     dE             d eps       ncg     rms          rms(c)
DAV:   1    -0.874800443805E+03    0.13950E-02   -0.74933E-01  2400   0.104E+00    0.354E-01
RMM:   2    -0.874803300396E+03   -0.28566E-02   -0.25519E-02  2848   0.303E-01    0.706E-01
RMM:   3    -0.874802186269E+03    0.11141E-02   -0.42737E-03  2907   0.102E-01    0.239E-01
RMM:   4    -0.874802750446E+03   -0.56418E-03   -0.92933E-04  2039   0.427E-02    0.307E-01
RMM:   5    -0.874803128143E+03   -0.37770E-03   -0.13096E-03  2041   0.621E-02    0.511E-01
RMM:   6    -0.874802459362E+03    0.66878E-03   -0.61580E-04  1763   0.463E-02    0.772E-02
RMM:   7    -0.874802771310E+03   -0.31195E-03   -0.28216E-04  1453   0.306E-02    0.801E-02
RMM:   8    -0.874802843697E+03   -0.72387E-04   -0.11391E-04  1400   0.272E-02
  98 F= -.89561992E+03 E0= -.89561366E+03  d E =-.124558E-02  mag=    -1.7954
       N       E                     dE             d eps       ncg     rms          rms(c)
DAV:   1    -0.874802019030E+03    0.75228E-03   -0.31017E-01  2432   0.666E-01    0.224E-01
RMM:   2    -0.874803372476E+03   -0.13534E-02   -0.11642E-02  2996   0.186E-01    0.550E-01
RMM:   3    -0.874802647439E+03    0.72504E-03   -0.16296E-03  2451   0.692E-02    0.186E-01
RMM:   4    -0.874803012216E+03   -0.36478E-03   -0.58965E-04  1887   0.358E-02    0.190E-01
RMM:   5    -0.874803095056E+03   -0.82841E-04   -0.32412E-04  1543   0.403E-02
  99 F= -.89562036E+03 E0= -.89561488E+03  d E =-.168990E-02  mag=    -1.7903
       N       E                     dE             d eps       ncg     rms          rms(c)
DAV:   1    -0.874802931150E+03    0.81066E-04   -0.24396E-02  3008   0.194E-01    0.617E-02
RMM:   2    -0.874803109130E+03   -0.17798E-03   -0.76743E-04  1954   0.530E-02    0.275E-02
RMM:   3    -0.874803141021E+03   -0.31891E-04   -0.15483E-04  1316   0.249E-02
 100 F= -.89562035E+03 E0= -.89561403E+03  d E =-.168313E-02  mag=    -1.7851
       N       E                     dE             d eps       ncg     rms          rms(c)
DAV:   1    -0.874803114650E+03   -0.55198E-05   -0.13112E-02  2736   0.139E-01    0.656E-02
RMM:   2    -0.874803218010E+03   -0.10336E-03   -0.46046E-04  1643   0.400E-02    0.213E-01
RMM:   3    -0.874803092465E+03    0.12554E-03   -0.11887E-04  1238   0.294E-02    0.417E-02
RMM:   4    -0.874803169471E+03   -0.77006E-04   -0.48866E-05  1208   0.178E-02
 101 F= -.89562042E+03 E0= -.89561379E+03  d E =-.175165E-02  mag=    -1.7830
       N       E                     dE             d eps       ncg     rms          rms(c)
DAV:   1    -0.874801627309E+03    0.14652E-02   -0.75639E-01  2368   0.107E+00    0.252E-01
RMM:   2    -0.874803760436E+03   -0.21331E-02   -0.21932E-02  2952   0.268E-01    0.393E-01
RMM:   3    -0.874803687551E+03    0.72885E-04   -0.27895E-03  2801   0.830E-02    0.361E-01
RMM:   4    -0.874803691084E+03   -0.35322E-05   -0.66702E-04  1915   0.410E-02
 102 F= -.89562107E+03 E0= -.89561357E+03  d E =-.646270E-03  mag=    -1.7654
       N       E                     dE             d eps       ncg     rms          rms(c)
DAV:   1    -0.874803809218E+03   -0.12167E-03   -0.89453E-03  3120   0.129E-01    0.271E-01
RMM:   2    -0.874806503068E+03   -0.26939E-02   -0.41840E-03  2507   0.892E-02    0.174E+00
RMM:   3    -0.874801082672E+03    0.54204E-02   -0.17266E-03  2121   0.809E-02    0.110E-01
RMM:   4    -0.874803647037E+03   -0.25644E-02   -0.52255E-04  1612   0.347E-02    0.158E-01
RMM:   5    -0.874803885598E+03   -0.23856E-03   -0.14911E-04  1238   0.315E-02    0.897E-02
RMM:   6    -0.874803902512E+03   -0.16914E-04   -0.99452E-05  1207   0.208E-02
 103 F= -.89562127E+03 E0= -.89561407E+03  d E =-.845434E-03  mag=    -1.7687
       N       E                     dE             d eps       ncg     rms          rms(c)
DAV:   1    -0.874803944116E+03   -0.58518E-04   -0.48798E-03  2608   0.870E-02    0.565E-02
RMM:   2    -0.874804019689E+03   -0.75573E-04   -0.26255E-04  1361   0.314E-02
 104 F= -.89562139E+03 E0= -.89561511E+03  d E =-.972428E-03  mag=    -1.7678
