       N       E                     dE             d eps       ncg     rms          rms(c)
DAV:   1     0.157406396728E+05    0.15741E+05   -0.33603E+05  2336   0.148E+03
DAV:   2     0.583882426597E+04   -0.99018E+04   -0.86909E+04  2496   0.394E+02
DAV:   3     0.682785744298E+03   -0.51560E+04   -0.48889E+04  2936   0.266E+02
DAV:   4    -0.903275758984E+03   -0.15861E+04   -0.14603E+04  3264   0.139E+02
DAV:   5    -0.107655006551E+04   -0.17327E+03   -0.17175E+03  3904   0.602E+01    0.156E+02
RMM:   6    -0.882880353805E+03    0.19367E+03   -0.57410E+02  3216   0.303E+01    0.994E+01
RMM:   7    -0.950883914273E+03   -0.68004E+02   -0.11145E+03  3442   0.310E+01    0.130E+02
RMM:   8    -0.154929058076E+04   -0.59841E+03   -0.10065E+03  3263   0.613E+01    0.319E+02
RMM:   9    -0.229569456651E+04   -0.74640E+03   -0.15020E+03  3688   0.425E+01    0.436E+02
RMM:  10    -0.214516330564E+04    0.15053E+03   -0.85848E+02  3513   0.363E+01    0.422E+02
RMM:  11    -0.135628613453E+04    0.78888E+03   -0.16790E+02  3069   0.167E+01    0.340E+02
RMM:  12    -0.893985747801E+03    0.46230E+03   -0.14812E+02  3240   0.131E+01    0.130E+02
RMM:  13    -0.881246859753E+03    0.12739E+02   -0.78982E+01  3265   0.934E+00    0.725E+01
RMM:  14    -0.876606248162E+03    0.46406E+01   -0.28803E+01  3208   0.627E+00    0.647E+01
RMM:  15    -0.876666355180E+03   -0.60107E-01   -0.25586E+01  3254   0.570E+00    0.696E+01
RMM:  16    -0.879831803656E+03   -0.31654E+01   -0.17906E+01  3243   0.453E+00    0.741E+01
RMM:  17    -0.878452486687E+03    0.13793E+01   -0.12047E+01  3240   0.404E+00    0.549E+01
RMM:  18    -0.878302190639E+03    0.15030E+00   -0.10527E+01  3209   0.386E+00    0.485E+01
RMM:  19    -0.880285216132E+03   -0.19830E+01   -0.64021E+00  3282   0.249E+00    0.511E+01
RMM:  20    -0.879821070638E+03    0.46415E+00   -0.50679E+00  3234   0.233E+00    0.457E+01
RMM:  21    -0.882202007450E+03   -0.23809E+01   -0.84337E+00  3462   0.172E+00    0.452E+01
RMM:  22    -0.882472159323E+03   -0.27015E+00   -0.74880E+00  3499   0.125E+00    0.458E+01
RMM:  23    -0.883252139192E+03   -0.77998E+00   -0.47453E+00  3664   0.878E-01    0.481E+01
RMM:  24    -0.883003193996E+03    0.24895E+00   -0.33040E+00  3701   0.685E-01    0.497E+01
RMM:  25    -0.884610794300E+03   -0.16076E+01   -0.61318E+00  3533   0.821E-01    0.555E+01
RMM:  26    -0.885428845361E+03   -0.81805E+00   -0.54174E+00  3450   0.816E-01    0.601E+01
RMM:  27    -0.885936896428E+03   -0.50805E+00   -0.33244E+00  3654   0.596E-01    0.638E+01
RMM:  28    -0.886778499188E+03   -0.84160E+00   -0.30656E+00  3384   0.609E-01    0.662E+01
RMM:  29    -0.889634683869E+03   -0.28562E+01   -0.44070E+00  3301   0.827E-01    0.828E+01
RMM:  30    -0.891566137764E+03   -0.19315E+01   -0.25564E+00  3220   0.834E-01    0.910E+01
RMM:  31    -0.893977254337E+03   -0.24111E+01   -0.33975E+00  3278   0.840E-01    0.103E+02
RMM:  32    -0.895509897925E+03   -0.15326E+01   -0.16820E+00  3244   0.685E-01    0.110E+02
RMM:  33    -0.895695481630E+03   -0.18558E+00   -0.10009E+00  3211   0.555E-01    0.110E+02
RMM:  34    -0.896147152717E+03   -0.45167E+00   -0.49065E-01  3143   0.406E-01    0.112E+02
RMM:  35    -0.896228243006E+03   -0.81090E-01   -0.20860E-01  3090   0.245E-01    0.113E+02
RMM:  36    -0.896229469077E+03   -0.12261E-02   -0.92716E-02  2990   0.164E-01    0.113E+02
RMM:  37    -0.897404539179E+03   -0.11751E+01   -0.51828E-02  3154   0.140E-01    0.115E+02
RMM:  38    -0.896773052505E+03    0.63149E+00   -0.25770E-02  2600   0.142E-01    0.114E+02
RMM:  39    -0.896755064465E+03    0.17988E-01   -0.13762E-02  2397   0.123E-01    0.114E+02
RMM:  40    -0.897835375256E+03   -0.10803E+01   -0.22490E-02  2894   0.143E-01    0.115E+02
RMM:  41    -0.897967130616E+03   -0.13176E+00   -0.55523E-02  2593   0.420E-01    0.115E+02
RMM:  42    -0.899750063662E+03   -0.17829E+01   -0.34527E-02  2995   0.285E-01    0.120E+02
RMM:  43    -0.899783474952E+03   -0.33411E-01   -0.35436E-02  2676   0.331E-01    0.120E+02
RMM:  44    -0.899751973842E+03    0.31501E-01   -0.10140E-02  2582   0.188E-01    0.120E+02
RMM:  45    -0.900057248651E+03   -0.30527E+00   -0.61413E-03  2491   0.129E-01    0.121E+02
RMM:  46    -0.900040434420E+03    0.16814E-01   -0.12366E-02  2906   0.171E-01    0.119E+02
RMM:  47    -0.900076808226E+03   -0.36374E-01   -0.15700E-02  2470   0.229E-01    0.119E+02
RMM:  48    -0.900072819746E+03    0.39885E-02   -0.32259E-03  2211   0.122E-01    0.119E+02
RMM:  49    -0.899611340074E+03    0.46148E+00   -0.25304E-02  3013   0.185E-01    0.118E+02
RMM:  50    -0.899372012275E+03    0.23933E+00   -0.28197E-02  2654   0.323E-01    0.118E+02
RMM:  51    -0.872738021844E+03    0.26634E+02   -0.10192E+02  3231   0.107E+01    0.454E+01
RMM:  52    -0.874770086195E+03   -0.20321E+01   -0.31657E+01  3132   0.761E+00    0.401E+01
RMM:  53    -0.875172780253E+03   -0.40269E+00   -0.11620E+01  3162   0.409E+00    0.422E+01
RMM:  54    -0.874890668885E+03    0.28211E+00   -0.45215E+00  3207   0.247E+00    0.416E+01
RMM:  55    -0.874661157024E+03    0.22951E+00   -0.24660E+00  3236   0.150E+00    0.403E+01
RMM:  56    -0.908413103460E+03   -0.33752E+02   -0.10953E+02  3209   0.120E+01    0.118E+02
RMM:  57    -0.864834433324E+03    0.43579E+02   -0.13149E+01  3155   0.469E+00    0.294E+01
RMM:  58    -0.882402046735E+03   -0.17568E+02   -0.17086E+01  3141   0.499E+00    0.950E+01
RMM:  59    -0.871275019690E+03    0.11127E+02   -0.13392E+01  3147   0.366E+00    0.521E+01
RMM:  60    -0.867653872709E+03    0.36211E+01   -0.42686E+00  3069   0.252E+00    0.244E+01
RMM:  61    -0.868191018024E+03   -0.53715E+00   -0.35528E+00  3158   0.256E+00    0.216E+01
RMM:  62    -0.872585487682E+03   -0.43945E+01   -0.58681E+00  3141   0.250E+00    0.595E+01
RMM:  63    -0.872316849955E+03    0.26864E+00   -0.37251E+00  3165   0.928E-01    0.567E+01
RMM:  64    -0.876210703120E+03   -0.38939E+01   -0.19297E+01  3368   0.127E+00    0.591E+01
RMM:  65    -0.869433775959E+03    0.67769E+01   -0.24167E+00  3086   0.139E+00    0.306E+01
RMM:  66    -0.872074436989E+03   -0.26407E+01   -0.61370E+00  3199   0.245E+00    0.358E+01
RMM:  67    -0.880600973021E+03   -0.85265E+01   -0.72586E+00  3248   0.187E+00    0.630E+01
RMM:  68    -0.876614614935E+03    0.39864E+01   -0.38429E+00  3182   0.137E+00    0.495E+01
RMM:  69    -0.877735290589E+03   -0.11207E+01   -0.11123E+00  3124   0.864E-01    0.508E+01
RMM:  70    -0.877621014149E+03    0.11428E+00   -0.80921E-01  3237   0.757E-01    0.507E+01
RMM:  71    -0.875549418501E+03    0.20716E+01   -0.45816E-01  3212   0.733E-01    0.486E+01
RMM:  72    -0.876075651328E+03   -0.52623E+00   -0.51710E-01  3140   0.785E-01    0.489E+01
RMM:  73    -0.876592187596E+03   -0.51654E+00   -0.22491E+00  3220   0.119E+00    0.495E+01
RMM:  74    -0.876619356618E+03   -0.27169E-01   -0.25422E-01  2994   0.446E-01    0.495E+01
RMM:  75    -0.877100557418E+03   -0.48120E+00   -0.61666E-01  3206   0.554E-01    0.608E+01
RMM:  76    -0.875071521221E+03    0.20290E+01   -0.60451E-01  3183   0.975E-01    0.496E+01
RMM:  77    -0.875009716971E+03    0.61804E-01   -0.29874E-01  3204   0.623E-01    0.497E+01
RMM:  78    -0.875395987198E+03   -0.38627E+00   -0.10289E+00  3201   0.726E-01    0.512E+01
RMM:  79    -0.874751169135E+03    0.64482E+00   -0.24820E-01  3171   0.565E-01    0.509E+01
RMM:  80    -0.874068535996E+03    0.68263E+00   -0.18781E-01  3211   0.428E-01    0.509E+01
RMM:  81    -0.875828008572E+03   -0.17595E+01   -0.16605E+00  3178   0.149E+00    0.512E+01
RMM:  82    -0.875642274095E+03    0.18573E+00   -0.86300E-01  3168   0.101E+00    0.508E+01
RMM:  83    -0.875381901659E+03    0.26037E+00   -0.33969E-01  3188   0.616E-01    0.507E+01
RMM:  84    -0.875303479686E+03    0.78422E-01   -0.10010E-01  3176   0.306E-01    0.506E+01
RMM:  85    -0.875373409883E+03   -0.69930E-01   -0.21583E-02  3081   0.183E-01    0.506E+01
RMM:  86    -0.871081094019E+03    0.42923E+01   -0.13930E+00  3117   0.147E+00    0.471E+01
RMM:  87    -0.871874819093E+03   -0.79373E+00   -0.41671E-01  3196   0.532E-01    0.465E+01
RMM:  88    -0.871955464735E+03   -0.80646E-01   -0.76733E-02  3172   0.342E-01    0.439E+01
RMM:  89    -0.872121110636E+03   -0.16565E+00   -0.17643E-01  3073   0.601E-01    0.403E+01
RMM:  90    -0.872622907643E+03   -0.50180E+00   -0.74753E-01  3017   0.111E+00    0.396E+01
RMM:  91    -0.869537120674E+03    0.30858E+01   -0.58115E+00  3199   0.237E+00    0.390E+01
RMM:  92    -0.867721486344E+03    0.18156E+01   -0.35468E+00  3199   0.197E+00    0.380E+01
RMM:  93    -0.868347669325E+03   -0.62618E+00   -0.20182E+00  3202   0.151E+00    0.372E+01
RMM:  94    -0.863179988591E+03    0.51677E+01   -0.14682E+00  3181   0.148E+00    0.348E+01
RMM:  95    -0.863118909398E+03    0.61079E-01   -0.26021E-01  3104   0.682E-01    0.345E+01
RMM:  96    -0.859802816409E+03    0.33161E+01   -0.14182E+01  3190   0.426E+00    0.295E+01
RMM:  97    -0.859300415471E+03    0.50240E+00   -0.22770E+00  3108   0.227E+00    0.225E+01
RMM:  98    -0.860474059128E+03   -0.11736E+01   -0.65352E-01  3143   0.119E+00    0.220E+01
RMM:  99    -0.860740343983E+03   -0.26628E+00   -0.35025E-01  3209   0.732E-01    0.206E+01
RMM: 100    -0.861311480250E+03   -0.57114E+00   -0.46473E-01  3143   0.962E-01
   1 F= -.88210056E+03 E0= -.88209152E+03  d E =-.882101E+03  mag=    -2.6925
       N       E                     dE             d eps       ncg     rms          rms(c)
DAV:   1    -0.864585261714E+03   -0.38449E+01   -0.25578E+01  3632   0.106E+01    0.168E+01
RMM:   2    -0.884978789830E+03   -0.20394E+02   -0.30411E+01  3196   0.694E+00    0.857E+01
RMM:   3    -0.868331510220E+03    0.16647E+02   -0.90088E+00  3058   0.452E+00    0.220E+01
RMM:   4    -0.867563541742E+03    0.76797E+00   -0.50636E+00  2919   0.372E+00    0.129E+01
RMM:   5    -0.867608702817E+03   -0.45161E-01   -0.31788E+00  3199   0.209E+00    0.136E+01
RMM:   6    -0.867491877314E+03    0.11683E+00   -0.13766E+00  2925   0.186E+00    0.111E+01
RMM:   7    -0.867536906402E+03   -0.45029E-01   -0.13540E+00  3214   0.134E+00    0.929E+00
RMM:   8    -0.868645178480E+03   -0.11083E+01   -0.19609E+00  3108   0.180E+00    0.166E+01
RMM:   9    -0.867693450486E+03    0.95173E+00   -0.92170E-01  3085   0.133E+00    0.949E+00
RMM:  10    -0.867923888702E+03   -0.23044E+00   -0.16029E-01  3127   0.518E-01    0.987E+00
RMM:  11    -0.867967553424E+03   -0.43665E-01   -0.56121E-02  3428   0.242E-01    0.973E+00
RMM:  12    -0.868418268816E+03   -0.45072E+00   -0.28753E-01  3079   0.526E-01    0.856E+00
RMM:  13    -0.869020946588E+03   -0.60268E+00   -0.16338E+00  3149   0.141E+00    0.670E+00
RMM:  14    -0.869110275339E+03   -0.89329E-01   -0.72003E-01  3183   0.926E-01    0.106E+01
RMM:  15    -0.868785828875E+03    0.32445E+00   -0.28880E-01  3011   0.819E-01    0.586E+00
RMM:  16    -0.868539318681E+03    0.24651E+00   -0.36468E-01  3174   0.734E-01    0.660E+00
RMM:  17    -0.868677372479E+03   -0.13805E+00   -0.23706E-01  3126   0.638E-01    0.566E+00
RMM:  18    -0.868741850364E+03   -0.64478E-01   -0.96444E-02  3149   0.333E-01    0.523E+00
RMM:  19    -0.868788250953E+03   -0.46401E-01   -0.50838E-02  2907   0.313E-01    0.485E+00
RMM:  20    -0.868787592063E+03    0.65889E-03   -0.40509E-02  3004   0.160E-01    0.475E+00
RMM:  21    -0.868785732590E+03    0.18595E-02   -0.52435E-02  2882   0.299E-01    0.451E+00
RMM:  22    -0.868764183685E+03    0.21549E-01   -0.14144E-01  3161   0.348E-01    0.435E+00
RMM:  23    -0.868755540419E+03    0.86433E-02   -0.10855E-01  2999   0.385E-01    0.412E+00
RMM:  24    -0.868760718166E+03   -0.51777E-02   -0.40336E-02  2698   0.135E-01    0.408E+00
RMM:  25    -0.868754564761E+03    0.61534E-02   -0.53631E-03  2672   0.759E-02    0.407E+00
RMM:  26    -0.868760352683E+03   -0.57879E-02   -0.60002E-03  2272   0.978E-02    0.402E+00
RMM:  27    -0.868758254219E+03    0.20985E-02   -0.14854E-02  2174   0.143E-01    0.403E+00
RMM:  28    -0.868743025080E+03    0.15229E-01   -0.13140E-01  2706   0.312E-01    0.410E+00
RMM:  29    -0.868740849672E+03    0.21754E-02   -0.19578E-01  2958   0.285E-01    0.413E+00
RMM:  30    -0.868752414109E+03   -0.11564E-01   -0.58092E-02  2512   0.185E-01    0.415E+00
RMM:  31    -0.868766539975E+03   -0.14126E-01   -0.24541E-02  2631   0.111E-01    0.410E+00
RMM:  32    -0.868784603199E+03   -0.18063E-01   -0.22273E-02  2652   0.236E-01    0.385E+00
RMM:  33    -0.868794481265E+03   -0.98781E-02   -0.22937E-02  2897   0.155E-01    0.369E+00
RMM:  34    -0.868799857256E+03   -0.53760E-02   -0.20577E-02  2824   0.167E-01    0.358E+00
RMM:  35    -0.868796466597E+03    0.33907E-02   -0.91752E-03  2302   0.142E-01    0.364E+00
RMM:  36    -0.868797327092E+03   -0.86049E-03   -0.23537E-02  2274   0.148E-01    0.366E+00
RMM:  37    -0.868801221677E+03   -0.38946E-02   -0.16627E-02  2083   0.770E-02    0.363E+00
RMM:  38    -0.868802682934E+03   -0.14613E-02   -0.54097E-03  1993   0.813E-02    0.359E+00
RMM:  39    -0.868808271630E+03   -0.55887E-02   -0.31359E-02  2415   0.138E-01    0.350E+00
RMM:  40    -0.868814058151E+03   -0.57865E-02   -0.24832E-02  2297   0.965E-02    0.343E+00
RMM:  41    -0.868823698182E+03   -0.96400E-02   -0.69221E-02  2681   0.209E-01    0.332E+00
RMM:  42    -0.868830866809E+03   -0.71686E-02   -0.11365E-01  2767   0.190E-01    0.321E+00
RMM:  43    -0.868825714018E+03    0.51528E-02   -0.95623E-02  2587   0.228E-01    0.322E+00
RMM:  44    -0.868828051566E+03   -0.23375E-02   -0.70831E-02  2248   0.114E-01    0.320E+00
RMM:  45    -0.868834885801E+03   -0.68342E-02   -0.30540E-02  1965   0.149E-01    0.319E+00
RMM:  46    -0.868838761824E+03   -0.38760E-02   -0.26785E-02  1938   0.731E-02    0.317E+00
RMM:  47    -0.868821776604E+03    0.16985E-01   -0.84036E-01  2831   0.865E-01    0.270E+00
RMM:  48    -0.868864225691E+03   -0.42449E-01   -0.34431E-01  2789   0.255E-01    0.254E+00
RMM:  49    -0.868869669662E+03   -0.54440E-02   -0.14431E-02  2392   0.156E-01    0.249E+00
RMM:  50    -0.868870011640E+03   -0.34198E-03   -0.33659E-03  2342   0.779E-02    0.251E+00
RMM:  51    -0.868871258811E+03   -0.12472E-02   -0.38946E-03  2050   0.558E-02    0.249E+00
RMM:  52    -0.868139213209E+03    0.73205E+00   -0.61441E+00  2810   0.251E+00    0.440E+00
RMM:  53    -0.868411468477E+03   -0.27226E+00   -0.18937E+00  2838   0.733E-01    0.336E+00
RMM:  54    -0.868463795370E+03   -0.52327E-01   -0.17962E-01  2688   0.411E-01    0.308E+00
RMM:  55    -0.868486315463E+03   -0.22520E-01   -0.45750E-02  2744   0.147E-01    0.302E+00
RMM:  56    -0.868466072712E+03    0.20243E-01   -0.13276E-02  2655   0.102E-01    0.309E+00
RMM:  57    -0.868265366901E+03    0.20071E+00   -0.16720E+00  2774   0.136E+00    0.244E+00
RMM:  58    -0.868207452627E+03    0.57914E-01   -0.11535E+00  2903   0.581E-01    0.259E+00
RMM:  59    -0.868211061369E+03   -0.36087E-02   -0.41419E-02  2301   0.250E-01    0.257E+00
RMM:  60    -0.868211562438E+03   -0.50107E-03   -0.48108E-02  2525   0.252E-01    0.262E+00
RMM:  61    -0.868177093097E+03    0.34469E-01   -0.14036E+00  2757   0.105E+00    0.289E+00
RMM:  62    -0.868154162308E+03    0.22931E-01   -0.38905E-01  2568   0.289E-01    0.283E+00
RMM:  63    -0.868042340351E+03    0.11182E+00   -0.45758E-02  2569   0.267E-01    0.300E+00
RMM:  64    -0.868032289819E+03    0.10051E-01   -0.17510E-02  2187   0.912E-02    0.300E+00
RMM:  65    -0.868017723626E+03    0.14566E-01   -0.22171E-03  1818   0.795E-02    0.302E+00
RMM:  66    -0.868015840188E+03    0.18834E-02   -0.11133E-03  1745   0.387E-02    0.302E+00
RMM:  67    -0.868219813392E+03   -0.20397E+00   -0.64479E-01  2895   0.870E-01    0.252E+00
RMM:  68    -0.868261685590E+03   -0.41872E-01   -0.96754E-01  3010   0.642E-01    0.240E+00
RMM:  69    -0.868406263626E+03   -0.14458E+00   -0.23568E-01  2653   0.567E-01    0.217E+00
RMM:  70    -0.868466971650E+03   -0.60708E-01   -0.42294E-01  2806   0.486E-01    0.206E+00
RMM:  71    -0.868506520455E+03   -0.39549E-01   -0.67203E-02  2284   0.146E-01    0.198E+00
RMM:  72    -0.868493778921E+03    0.12742E-01   -0.35446E-01  2660   0.547E-01    0.193E+00
RMM:  73    -0.868554978241E+03   -0.61199E-01   -0.18360E-01  2758   0.235E-01    0.188E+00
RMM:  74    -0.868599013120E+03   -0.44035E-01   -0.57581E-02  2678   0.217E-01    0.183E+00
RMM:  75    -0.868593951818E+03    0.50613E-02   -0.11795E-01  2893   0.250E-01    0.190E+00
RMM:  76    -0.868592073267E+03    0.18786E-02   -0.24491E-02  2290   0.666E-02    0.190E+00
RMM:  77    -0.868624390453E+03   -0.32317E-01   -0.17816E-02  2414   0.154E-01    0.187E+00
RMM:  78    -0.868617846259E+03    0.65442E-02   -0.46286E-03  1893   0.547E-02    0.188E+00
RMM:  79    -0.868597171712E+03    0.20675E-01   -0.60056E-02  2423   0.225E-01    0.186E+00
RMM:  80    -0.868603619886E+03   -0.64482E-02   -0.30879E-02  2121   0.806E-02    0.185E+00
RMM:  81    -0.868610783611E+03   -0.71637E-02   -0.17660E-03  1616   0.617E-02    0.184E+00
RMM:  82    -0.868728741587E+03   -0.11796E+00   -0.15570E-01  2778   0.354E-01    0.159E+00
RMM:  83    -0.868756239316E+03   -0.27498E-01   -0.51877E-02  2614   0.194E-01    0.151E+00
RMM:  84    -0.868814717551E+03   -0.58478E-01   -0.55235E-01  2880   0.536E-01    0.140E+00
RMM:  85    -0.868856939027E+03   -0.42221E-01   -0.11465E+00  2985   0.490E-01    0.139E+00
RMM:  86    -0.868861586404E+03   -0.46474E-02   -0.24064E-01  2904   0.339E-01    0.155E+00
RMM:  87    -0.868848319954E+03    0.13266E-01   -0.13049E+00  2862   0.642E-01    0.193E+00
RMM:  88    -0.868890948010E+03   -0.42628E-01   -0.32461E-01  2583   0.180E-01    0.173E+00
RMM:  89    -0.868903301677E+03   -0.12354E-01   -0.16801E-02  2216   0.101E-01    0.167E+00
RMM:  90    -0.868908918277E+03   -0.56166E-02   -0.91636E-02  2593   0.203E-01    0.175E+00
RMM:  91    -0.868914325585E+03   -0.54073E-02   -0.19739E-01  2797   0.197E-01    0.184E+00
RMM:  92    -0.868914998041E+03   -0.67246E-03   -0.61427E-02  2814   0.184E-01    0.188E+00
RMM:  93    -0.868924874597E+03   -0.98766E-02   -0.43088E-02  2557   0.111E-01    0.185E+00
RMM:  94    -0.868932893218E+03   -0.80186E-02   -0.22769E-02  2433   0.112E-01    0.184E+00
RMM:  95    -0.868934224173E+03   -0.13310E-02   -0.26979E-02  2037   0.787E-02    0.192E+00
RMM:  96    -0.868936236687E+03   -0.20125E-02   -0.39907E-03  1815   0.572E-02    0.193E+00
RMM:  97    -0.868910572470E+03    0.25664E-01   -0.85513E-02  2502   0.212E-01    0.218E+00
RMM:  98    -0.868902429944E+03    0.81425E-02   -0.10804E-01  2621   0.144E-01    0.231E+00
RMM:  99    -0.868903100284E+03   -0.67034E-03   -0.81836E-03  1719   0.820E-02    0.224E+00
RMM: 100    -0.868904611369E+03   -0.15111E-02   -0.60712E-02  2171   0.151E-01
   2 F= -.88969828E+03 E0= -.88969828E+03  d E =-.759772E+01  mag=     2.0007
       N       E                     dE             d eps       ncg     rms          rms(c)
DAV:   1    -0.868912125366E+03   -0.90251E-02   -0.11254E-01  3360   0.154E-01    0.199E+00
RMM:   2    -0.868943195878E+03   -0.31071E-01   -0.14780E-01  2929   0.475E-01    0.174E+00
RMM:   3    -0.868951803349E+03   -0.86075E-02   -0.43578E-02  2618   0.182E-01    0.137E+00
RMM:   4    -0.868972438125E+03   -0.20635E-01   -0.13501E-01  2800   0.431E-01    0.768E-01
RMM:   5    -0.868975366417E+03   -0.29283E-02   -0.45490E-02  2516   0.165E-01    0.535E-01
RMM:   6    -0.868983821816E+03   -0.84554E-02   -0.42113E-02  2755   0.184E-01    0.400E-01
RMM:   7    -0.868992716693E+03   -0.88949E-02   -0.53118E-02  2445   0.104E-01    0.332E-01
RMM:   8    -0.868997497770E+03   -0.47811E-02   -0.95262E-03  2089   0.726E-02    0.294E-01
RMM:   9    -0.869006681126E+03   -0.91834E-02   -0.45569E-02  2396   0.984E-02    0.295E-01
RMM:  10    -0.869014807914E+03   -0.81268E-02   -0.26771E-02  2322   0.103E-01    0.243E-01
RMM:  11    -0.869032986893E+03   -0.18179E-01   -0.21970E-01  2700   0.208E-01    0.274E-01
RMM:  12    -0.869038124746E+03   -0.51379E-02   -0.13297E-02  2175   0.819E-02    0.226E-01
RMM:  13    -0.869044052479E+03   -0.59277E-02   -0.33757E-02  2113   0.877E-02    0.233E-01
RMM:  14    -0.869048200169E+03   -0.41477E-02   -0.15766E-02  2257   0.842E-02    0.194E-01
RMM:  15    -0.869056649184E+03   -0.84490E-02   -0.90114E-02  2508   0.154E-01    0.175E-01
RMM:  16    -0.869060444196E+03   -0.37950E-02   -0.19903E-02  2175   0.811E-02    0.161E-01
RMM:  17    -0.869065662521E+03   -0.52183E-02   -0.48261E-02  2289   0.114E-01    0.127E-01
RMM:  18    -0.869069508716E+03   -0.38462E-02   -0.32331E-02  2353   0.107E-01    0.157E-01
RMM:  19    -0.869071603860E+03   -0.20951E-02   -0.14470E-02  1853   0.534E-02    0.145E-01
RMM:  20    -0.869069678333E+03    0.19255E-02   -0.31734E-03  1541   0.560E-02    0.168E-01
RMM:  21    -0.869072630963E+03   -0.29526E-02   -0.64898E-03  1664   0.672E-02    0.131E-01
RMM:  22    -0.869074142633E+03   -0.15117E-02   -0.96701E-03  1823   0.482E-02    0.136E-01
RMM:  23    -0.869075824130E+03   -0.16815E-02   -0.77588E-03  1777   0.688E-02    0.125E-01
RMM:  24    -0.869076588362E+03   -0.76423E-03   -0.55928E-03  1616   0.363E-02    0.130E-01
RMM:  25    -0.869076775727E+03   -0.18737E-03   -0.32353E-04  1428   0.302E-02    0.128E-01
RMM:  26    -0.869076893417E+03   -0.11769E-03   -0.31738E-04  1404   0.202E-02    0.132E-01
RMM:  27    -0.869076859938E+03    0.33479E-04   -0.53386E-05  1390   0.168E-02
   3 F= -.88987053E+03 E0= -.88987053E+03  d E =-.776997E+01  mag=     2.0000
       N       E                     dE             d eps       ncg     rms          rms(c)
DAV:   1    -0.869156054696E+03   -0.79161E-01   -0.73484E+00  2528   0.220E+00    0.771E-01
RMM:   2    -0.869169723774E+03   -0.13669E-01   -0.15518E-01  2901   0.653E-01    0.661E-01
RMM:   3    -0.869171553409E+03   -0.18296E-02   -0.28486E-02  3273   0.193E-01    0.548E-01
RMM:   4    -0.869172242098E+03   -0.68869E-03   -0.25808E-02  3026   0.153E-01    0.258E-01
RMM:   5    -0.869173514968E+03   -0.12729E-02   -0.12147E-02  2709   0.751E-02    0.161E-01
RMM:   6    -0.869173785879E+03   -0.27091E-03   -0.33501E-03  2741   0.616E-02    0.122E-01
RMM:   7    -0.869174506996E+03   -0.72112E-03   -0.43293E-03  2301   0.529E-02    0.954E-02
RMM:   8    -0.869174986902E+03   -0.47991E-03   -0.12253E-03  1558   0.439E-02    0.862E-02
RMM:   9    -0.869175739680E+03   -0.75278E-03   -0.35896E-03  1656   0.428E-02    0.813E-02
RMM:  10    -0.869176092698E+03   -0.35302E-03   -0.71815E-04  1497   0.390E-02    0.759E-02
RMM:  11    -0.869176990420E+03   -0.89772E-03   -0.39912E-03  1602   0.472E-02    0.682E-02
RMM:  12    -0.869177943800E+03   -0.95338E-03   -0.66740E-03  1632   0.459E-02    0.643E-02
RMM:  13    -0.869178896897E+03   -0.95310E-03   -0.46572E-03  1632   0.550E-02    0.501E-02
RMM:  14    -0.869180218057E+03   -0.13212E-02   -0.13772E-02  1742   0.585E-02    0.602E-02
RMM:  15    -0.869180711498E+03   -0.49344E-03   -0.11255E-03  1543   0.390E-02    0.535E-02
RMM:  16    -0.869180301883E+03    0.40962E-03   -0.29819E-04  1418   0.309E-02    0.645E-02
RMM:  17    -0.869181261617E+03   -0.95973E-03   -0.32042E-03  1499   0.450E-02    0.431E-02
RMM:  18    -0.869182520382E+03   -0.12588E-02   -0.12520E-02  1698   0.527E-02    0.558E-02
RMM:  19    -0.869182948493E+03   -0.42811E-03   -0.10630E-03  1486   0.378E-02    0.474E-02
RMM:  20    -0.869183241432E+03   -0.29294E-03   -0.12768E-03  1447   0.254E-02    0.572E-02
RMM:  21    -0.869182887102E+03    0.35433E-03   -0.29013E-04  1382   0.263E-02    0.631E-02
RMM:  22    -0.869183357209E+03   -0.47011E-03   -0.43501E-04  1406   0.242E-02    0.511E-02
RMM:  23    -0.869184127219E+03   -0.77001E-03   -0.32645E-03  1485   0.368E-02    0.361E-02
RMM:  24    -0.869184621802E+03   -0.49458E-03   -0.34496E-03  1462   0.287E-02    0.559E-02
RMM:  25    -0.869185258755E+03   -0.63695E-03   -0.20837E-03  1481   0.358E-02    0.392E-02
RMM:  26    -0.869186104721E+03   -0.84597E-03   -0.63606E-03  1587   0.395E-02    0.561E-02
RMM:  27    -0.869185341097E+03    0.76362E-03   -0.12674E-03  1407   0.336E-02    0.695E-02
RMM:  28    -0.869186400202E+03   -0.10591E-02   -0.21334E-03  1455   0.380E-02    0.418E-02
RMM:  29    -0.869186833085E+03   -0.43288E-03   -0.23519E-03  1448   0.253E-02    0.559E-02
RMM:  30    -0.869187811977E+03   -0.97889E-03   -0.57415E-03  1503   0.496E-02    0.287E-02
RMM:  31    -0.869189311156E+03   -0.14992E-02   -0.20808E-02  1706   0.606E-02    0.575E-02
RMM:  32    -0.869189716028E+03   -0.40487E-03   -0.82960E-04  1458   0.326E-02    0.550E-02
RMM:  33    -0.869189584125E+03    0.13190E-03   -0.10866E-04  1328   0.193E-02    0.567E-02
RMM:  34    -0.869189607018E+03   -0.22893E-04   -0.49274E-05  1301   0.165E-02
   4 F= -.88998435E+03 E0= -.88998435E+03  d E =-.113824E+00  mag=     2.0000
       N       E                     dE             d eps       ncg     rms          rms(c)
DAV:   1    -0.869239527106E+03   -0.49943E-01   -0.66490E+01  2336   0.661E+00    0.228E+00
RMM:   2    -0.869367170461E+03   -0.12764E+00   -0.14914E+00  2957   0.194E+00    0.198E+00
RMM:   3    -0.869376935405E+03   -0.97649E-02   -0.21779E-01  3329   0.559E-01    0.168E+00
RMM:   4    -0.869372775905E+03    0.41595E-02   -0.14897E-01  3317   0.389E-01    0.834E-01
RMM:   5    -0.869372472792E+03    0.30311E-03   -0.38532E-02  3215   0.211E-01    0.397E-01
RMM:   6    -0.869371351427E+03    0.11214E-02   -0.23591E-02  3357   0.147E-01    0.245E-01
RMM:   7    -0.869371271633E+03    0.79793E-04   -0.95301E-03  3167   0.103E-01    0.160E-01
RMM:   8    -0.869371822384E+03   -0.55075E-03   -0.53596E-03  3188   0.647E-02    0.131E-01
RMM:   9    -0.869372248205E+03   -0.42582E-03   -0.30615E-03  2498   0.524E-02    0.110E-01
RMM:  10    -0.869372727159E+03   -0.47895E-03   -0.23496E-03  2386   0.505E-02    0.903E-02
RMM:  11    -0.869373278419E+03   -0.55126E-03   -0.26988E-03  1770   0.448E-02    0.816E-02
RMM:  12    -0.869373815496E+03   -0.53708E-03   -0.20388E-03  1614   0.453E-02    0.707E-02
RMM:  13    -0.869374492643E+03   -0.67715E-03   -0.41653E-03  1635   0.456E-02    0.659E-02
RMM:  14    -0.869374763266E+03   -0.27062E-03   -0.85643E-04  1515   0.393E-02    0.647E-02
RMM:  15    -0.869374860560E+03   -0.97294E-04   -0.45533E-04  1420   0.283E-02
   5 F= -.89017286E+03 E0= -.89017286E+03  d E =-.302333E+00  mag=     2.0000
       N       E                     dE             d eps       ncg     rms          rms(c)
DAV:   1    -0.868613234897E+03    0.76153E+00   -0.27129E+02  2336   0.133E+01    0.465E+00
RMM:   2    -0.869254864252E+03   -0.64163E+00   -0.78180E+00  3004   0.408E+00    0.408E+00
RMM:   3    -0.869276496361E+03   -0.21632E-01   -0.92050E-01  3252   0.122E+00    0.348E+00
RMM:   4    -0.869255967810E+03    0.20529E-01   -0.70655E-01  3347   0.839E-01    0.238E+00
RMM:   5    -0.869232139943E+03    0.23828E-01   -0.16116E-01  3151   0.521E-01    0.129E+00
RMM:   6    -0.869240326792E+03   -0.81868E-02   -0.13190E-01  3434   0.283E-01    0.577E-01
RMM:   7    -0.869238428563E+03    0.18982E-02   -0.27328E-02  3199   0.205E-01    0.451E-01
RMM:   8    -0.869237706395E+03    0.72217E-03   -0.33630E-02  3400   0.169E-01    0.277E-01
RMM:   9    -0.869238154375E+03   -0.44798E-03   -0.11896E-02  3168   0.124E-01    0.225E-01
RMM:  10    -0.869238842476E+03   -0.68810E-03   -0.71855E-03  3328   0.870E-02    0.165E-01
RMM:  11    -0.869239356859E+03   -0.51438E-03   -0.45744E-03  2703   0.646E-02    0.136E-01
RMM:  12    -0.869239970732E+03   -0.61387E-03   -0.29527E-03  2618   0.581E-02    0.992E-02
RMM:  13    -0.869240802269E+03   -0.83154E-03   -0.60474E-03  2308   0.533E-02    0.690E-02
RMM:  14    -0.869241229525E+03   -0.42726E-03   -0.17312E-03  1945   0.483E-02    0.602E-02
RMM:  15    -0.869241665315E+03   -0.43579E-03   -0.24977E-03  1771   0.431E-02    0.593E-02
RMM:  16    -0.869241785843E+03   -0.12053E-03   -0.35197E-04  1529   0.366E-02    0.582E-02
RMM:  17    -0.869242140625E+03   -0.35478E-03   -0.10202E-03  1544   0.387E-02    0.566E-02
RMM:  18    -0.869242684212E+03   -0.54359E-03   -0.30353E-03  1576   0.413E-02    0.533E-02
RMM:  19    -0.869243245026E+03   -0.56081E-03   -0.23300E-03  1633   0.483E-02    0.498E-02
RMM:  20    -0.869243961208E+03   -0.71618E-03   -0.78641E-03  1704   0.570E-02    0.439E-02
RMM:  21    -0.869245177693E+03   -0.12165E-02   -0.15655E-02  1748   0.592E-02    0.499E-02
RMM:  22    -0.869246008727E+03   -0.83103E-03   -0.61894E-03  1731   0.603E-02    0.339E-02
RMM:  23    -0.869247257973E+03   -0.12492E-02   -0.19035E-02  1797   0.663E-02    0.569E-02
RMM:  24    -0.869247916352E+03   -0.65838E-03   -0.25575E-03  1643   0.482E-02    0.403E-02
RMM:  25    -0.869248249848E+03   -0.33350E-03   -0.22029E-03  1510   0.350E-02    0.547E-02
RMM:  26    -0.869247706209E+03    0.54364E-03   -0.96160E-04  1467   0.368E-02    0.631E-02
RMM:  27    -0.869248092535E+03   -0.38633E-03   -0.27343E-04  1427   0.288E-02    0.514E-02
RMM:  28    -0.869248757621E+03   -0.66509E-03   -0.36028E-03  1550   0.439E-02    0.348E-02
RMM:  29    -0.869249052840E+03   -0.29522E-03   -0.23193E-03  1529   0.315E-02    0.455E-02
RMM:  30    -0.869249275538E+03   -0.22270E-03   -0.51100E-04  1474   0.305E-02    0.372E-02
RMM:  31    -0.869249431746E+03   -0.15621E-03   -0.67090E-04  1469   0.260E-02    0.441E-02
RMM:  32    -0.869249260257E+03    0.17149E-03   -0.10911E-04  1414   0.220E-02    0.472E-02
RMM:  33    -0.869249322746E+03   -0.62490E-04   -0.47703E-05  1408   0.186E-02
   6 F= -.89005396E+03 E0= -.89005396E+03  d E =-.183430E+00  mag=     2.0000
       N       E                     dE             d eps       ncg     rms          rms(c)
DAV:   1    -0.869133442643E+03    0.11582E+00   -0.13233E+02  2480   0.929E+00    0.346E+00
RMM:   2    -0.869419840954E+03   -0.28640E+00   -0.33862E+00  2947   0.290E+00    0.284E+00
RMM:   3    -0.869437358349E+03   -0.17517E-01   -0.50446E-01  3297   0.836E-01    0.224E+00
RMM:   4    -0.869421161533E+03    0.16197E-01   -0.22387E-01  3258   0.518E-01    0.125E+00
RMM:   5    -0.869419787821E+03    0.13737E-02   -0.58862E-02  3287   0.263E-01    0.642E-01
RMM:   6    -0.869421429568E+03   -0.16417E-02   -0.32318E-02  3416   0.175E-01    0.323E-01
RMM:   7    -0.869421063702E+03    0.36587E-03   -0.12605E-02  3249   0.115E-01    0.249E-01
RMM:   8    -0.869421401079E+03   -0.33738E-03   -0.83621E-03  3269   0.812E-02    0.161E-01
RMM:   9    -0.869421973787E+03   -0.57271E-03   -0.52833E-03  2888   0.757E-02    0.131E-01
RMM:  10    -0.869422314044E+03   -0.34026E-03   -0.27953E-03  2925   0.577E-02    0.973E-02
RMM:  11    -0.869422710357E+03   -0.39631E-03   -0.27863E-03  2269   0.519E-02    0.889E-02
RMM:  12    -0.869423078403E+03   -0.36805E-03   -0.18100E-03  1948   0.535E-02    0.597E-02
RMM:  13    -0.869423511970E+03   -0.43357E-03   -0.30464E-03  1827   0.426E-02    0.574E-02
RMM:  14    -0.869423606310E+03   -0.94340E-04   -0.33022E-04  1480   0.379E-02
   7 F= -.89022353E+03 E0= -.89022353E+03  d E =-.353004E+00  mag=     2.0000
       N       E                     dE             d eps       ncg     rms          rms(c)
DAV:   1    -0.869443251321E+03   -0.19739E-01   -0.49130E+00  2520   0.284E+00    0.798E-01
RMM:   2    -0.869458892875E+03   -0.15642E-01   -0.20008E-01  2751   0.947E-01    0.102E+00
RMM:   3    -0.869463485966E+03   -0.45931E-02   -0.48665E-02  3260   0.277E-01    0.943E-01
RMM:   4    -0.869464287373E+03   -0.80141E-03   -0.13958E-02  3285   0.140E-01    0.914E-01
RMM:   5    -0.869468823531E+03   -0.45362E-02   -0.32261E-02  3078   0.189E-01    0.604E-01
RMM:   6    -0.869468561823E+03    0.26171E-03   -0.70908E-03  2664   0.123E-01    0.411E-01
RMM:   7    -0.869466041002E+03    0.25208E-02   -0.11711E-02  2979   0.115E-01    0.224E-01
RMM:   8    -0.869465953926E+03    0.87076E-04   -0.18839E-03  2291   0.717E-02    0.194E-01
RMM:   9    -0.869465906615E+03    0.47311E-04   -0.15803E-03  2390   0.423E-02    0.163E-01
RMM:  10    -0.869465895900E+03    0.10714E-04   -0.16232E-03  2287   0.506E-02    0.125E-01
RMM:  11    -0.869466071120E+03   -0.17522E-03   -0.22703E-03  2477   0.543E-02    0.739E-02
RMM:  12    -0.869466454036E+03   -0.38292E-03   -0.29790E-03  2143   0.546E-02    0.510E-02
RMM:  13    -0.869466777043E+03   -0.32301E-03   -0.12525E-03  1817   0.468E-02    0.428E-02
RMM:  14    -0.869466975465E+03   -0.19842E-03   -0.11536E-03  1498   0.384E-02    0.447E-02
RMM:  15    -0.869467147498E+03   -0.17203E-03   -0.44234E-04  1463   0.291E-02    0.378E-02
RMM:  16    -0.869467472118E+03   -0.32462E-03   -0.18326E-03  1516   0.349E-02    0.334E-02
RMM:  17    -0.869467793186E+03   -0.32107E-03   -0.24302E-03  1503   0.298E-02    0.389E-02
RMM:  18    -0.869468074899E+03   -0.28171E-03   -0.96459E-04  1509   0.305E-02    0.320E-02
RMM:  19    -0.869468493746E+03   -0.41885E-03   -0.56596E-03  1568   0.445E-02    0.256E-02
RMM:  20    -0.869469018277E+03   -0.52453E-03   -0.52361E-03  1545   0.339E-02    0.390E-02
RMM:  21    -0.869469396240E+03   -0.37796E-03   -0.20365E-03  1532   0.356E-02    0.248E-02
RMM:  22    -0.869469629227E+03   -0.23299E-03   -0.16802E-03  1477   0.274E-02    0.382E-02
RMM:  23    -0.869469529455E+03    0.99772E-04   -0.78038E-05  1385   0.196E-02
   8 F= -.89027003E+03 E0= -.89027003E+03  d E =-.464926E-01  mag=     2.0000
       N       E                     dE             d eps       ncg     rms          rms(c)
DAV:   1    -0.869475770707E+03   -0.61415E-02   -0.76943E-01  2568   0.112E+00    0.315E-01
RMM:   2    -0.869478421250E+03   -0.26505E-02   -0.31813E-02  2711   0.376E-01    0.404E-01
RMM:   3    -0.869479243357E+03   -0.82211E-03   -0.84923E-03  3249   0.112E-01    0.379E-01
RMM:   4    -0.869479455718E+03   -0.21236E-03   -0.25274E-03  2863   0.596E-02    0.365E-01
RMM:   5    -0.869480509311E+03   -0.10536E-02   -0.78478E-03  2975   0.915E-02    0.243E-01
RMM:   6    -0.869480656792E+03   -0.14748E-03   -0.35053E-03  1886   0.585E-02    0.168E-01
RMM:   7    -0.869480431550E+03    0.22524E-03   -0.27126E-03  2434   0.603E-02    0.994E-02
RMM:   8    -0.869480491482E+03   -0.59932E-04   -0.75290E-04  1546   0.392E-02
   9 F= -.89028121E+03 E0= -.89028121E+03  d E =-.576805E-01  mag=     2.0000
       N       E                     dE             d eps       ncg     rms          rms(c)
DAV:   1    -0.869475697861E+03    0.47337E-02   -0.30964E+00  2408   0.225E+00    0.657E-01
RMM:   2    -0.869485608175E+03   -0.99103E-02   -0.13171E-01  2763   0.762E-01    0.810E-01
RMM:   3    -0.869488971137E+03   -0.33630E-02   -0.34911E-02  3326   0.225E-01    0.750E-01
RMM:   4    -0.869489662292E+03   -0.69115E-03   -0.11391E-02  3296   0.126E-01    0.716E-01
RMM:   5    -0.869493052912E+03   -0.33906E-02   -0.21153E-02  3123   0.151E-01    0.500E-01
RMM:   6    -0.869492338247E+03    0.71466E-03   -0.46203E-03  2614   0.983E-02    0.340E-01
RMM:   7    -0.869490862230E+03    0.14760E-02   -0.98109E-03  2963   0.103E-01    0.165E-01
RMM:   8    -0.869490913202E+03   -0.50972E-04   -0.11440E-03  1977   0.656E-02    0.150E-01
RMM:   9    -0.869490920840E+03   -0.76380E-05   -0.85021E-04  2004   0.349E-02
  10 F= -.89029210E+03 E0= -.89029210E+03  d E =-.685625E-01  mag=     2.0000
       N       E                     dE             d eps       ncg     rms          rms(c)
DAV:   1    -0.869491634073E+03   -0.72087E-03   -0.11166E+00  2600   0.134E+00    0.353E-01
RMM:   2    -0.869495852330E+03   -0.42183E-02   -0.50712E-02  2808   0.475E-01    0.295E-01
RMM:   3    -0.869497095871E+03   -0.12435E-02   -0.13075E-02  3267   0.142E-01    0.250E-01
RMM:   4    -0.869497294813E+03   -0.19894E-03   -0.38626E-03  2982   0.824E-02    0.180E-01
RMM:   5    -0.869497842169E+03   -0.54736E-03   -0.39291E-03  2930   0.598E-02    0.103E-01
RMM:   6    -0.869497862570E+03   -0.20401E-04   -0.10143E-03  1815   0.441E-02    0.753E-02
RMM:   7    -0.869498092567E+03   -0.23000E-03   -0.27622E-03  2385   0.541E-02    0.466E-02
RMM:   8    -0.869498168520E+03   -0.75952E-04   -0.30725E-04  1464   0.377E-02
  11 F= -.89029955E+03 E0= -.89029955E+03  d E =-.745815E-02  mag=     2.0000
       N       E                     dE             d eps       ncg     rms          rms(c)
DAV:   1    -0.869498726648E+03   -0.63408E-03   -0.44175E-02  2816   0.266E-01    0.752E-02
RMM:   2    -0.869498992487E+03   -0.26584E-03   -0.22537E-03  2507   0.999E-02    0.674E-02
RMM:   3    -0.869499103567E+03   -0.11108E-03   -0.72993E-04  1805   0.365E-02    0.632E-02
RMM:   4    -0.869499217537E+03   -0.11397E-03   -0.35856E-04  1487   0.388E-02    0.540E-02
RMM:   5    -0.869499478402E+03   -0.26087E-03   -0.14590E-03  1480   0.366E-02    0.324E-02
RMM:   6    -0.869499723067E+03   -0.24466E-03   -0.17017E-03  1468   0.352E-02    0.305E-02
RMM:   7    -0.869499800017E+03   -0.76950E-04   -0.18899E-04  1387   0.259E-02
  12 F= -.89030123E+03 E0= -.89030123E+03  d E =-.913083E-02  mag=     2.0000
       N       E                     dE             d eps       ncg     rms          rms(c)
DAV:   1    -0.869499763253E+03   -0.40186E-04   -0.17195E-01  2480   0.527E-01    0.131E-01
RMM:   2    -0.869500571694E+03   -0.80844E-03   -0.89957E-03  2851   0.190E-01    0.111E-01
RMM:   3    -0.869500848660E+03   -0.27697E-03   -0.25452E-03  2902   0.607E-02    0.100E-01
RMM:   4    -0.869500971011E+03   -0.12235E-03   -0.89115E-04  1845   0.406E-02    0.800E-02
RMM:   5    -0.869501229365E+03   -0.25835E-03   -0.17097E-03  1914   0.461E-02    0.518E-02
RMM:   6    -0.869501383161E+03   -0.15380E-03   -0.11645E-03  1451   0.379E-02    0.403E-02
RMM:   7    -0.869501463002E+03   -0.79841E-04   -0.30652E-04  1436   0.285E-02
  13 F= -.89030297E+03 E0= -.89030297E+03  d E =-.108764E-01  mag=     2.0000
       N       E                     dE             d eps       ncg     rms          rms(c)
DAV:   1    -0.869497666146E+03    0.37170E-02   -0.68421E-01  2416   0.105E+00    0.266E-01
RMM:   2    -0.869500501069E+03   -0.28349E-02   -0.34119E-02  2877   0.376E-01    0.222E-01
RMM:   3    -0.869501350911E+03   -0.84984E-03   -0.90452E-03  3457   0.115E-01    0.196E-01
RMM:   4    -0.869501474956E+03   -0.12405E-03   -0.31967E-03  2973   0.693E-02    0.148E-01
RMM:   5    -0.869501907815E+03   -0.43286E-03   -0.32465E-03  2888   0.601E-02    0.953E-02
RMM:   6    -0.869501952222E+03   -0.44407E-04   -0.15609E-03  1952   0.450E-02    0.620E-02
RMM:   7    -0.869502169105E+03   -0.21688E-03   -0.22735E-03  2341   0.528E-02    0.425E-02
RMM:   8    -0.869502211572E+03   -0.42467E-04   -0.35235E-04  1469   0.367E-02
  14 F= -.89030389E+03 E0= -.89030389E+03  d E =-.117910E-01  mag=     2.0000
       N       E                     dE             d eps       ncg     rms          rms(c)
DAV:   1    -0.869500919355E+03    0.12498E-02   -0.40345E-01  2480   0.809E-01    0.208E-01
RMM:   2    -0.869502473601E+03   -0.15542E-02   -0.19849E-02  2887   0.280E-01    0.177E-01
RMM:   3    -0.869502833280E+03   -0.35968E-03   -0.37492E-03  2964   0.837E-02    0.156E-01
RMM:   4    -0.869502921419E+03   -0.88139E-04   -0.13948E-03  2193   0.557E-02    0.112E-01
RMM:   5    -0.869503331137E+03   -0.40972E-03   -0.28124E-03  2291   0.556E-02    0.794E-02
RMM:   6    -0.869503297664E+03    0.33473E-04   -0.36076E-04  1391   0.361E-02
  15 F= -.89030484E+03 E0= -.89030484E+03  d E =-.127485E-01  mag=     2.0000
       N       E                     dE             d eps       ncg     rms          rms(c)
DAV:   1    -0.869503048296E+03    0.28284E-03   -0.10009E-01  2464   0.402E-01    0.990E-02
RMM:   2    -0.869503398446E+03   -0.35015E-03   -0.41918E-03  2574   0.140E-01    0.892E-02
RMM:   3    -0.869503500994E+03   -0.10255E-03   -0.90253E-04  1963   0.448E-02    0.766E-02
RMM:   4    -0.869503625639E+03   -0.12465E-03   -0.50869E-04  1480   0.433E-02    0.562E-02
RMM:   5    -0.869503814126E+03   -0.18849E-03   -0.10576E-03  1482   0.334E-02    0.347E-02
RMM:   6    -0.869503970140E+03   -0.15601E-03   -0.57330E-04  1422   0.352E-02    0.258E-02
RMM:   7    -0.869504063328E+03   -0.93187E-04   -0.51746E-04  1362   0.245E-02
  16 F= -.89030567E+03 E0= -.89030567E+03  d E =-.135784E-01  mag=     2.0000
       N       E                     dE             d eps       ncg     rms          rms(c)
DAV:   1    -0.869504111665E+03   -0.14152E-03   -0.23373E-02  2616   0.197E-01    0.565E-02
RMM:   2    -0.869504237175E+03   -0.12551E-03   -0.11417E-03  2174   0.706E-02    0.523E-02
RMM:   3    -0.869504298354E+03   -0.61180E-04   -0.36133E-04  1318   0.295E-02
  17 F= -.89030588E+03 E0= -.89030588E+03  d E =-.137821E-01  mag=     2.0000
       N       E                     dE             d eps       ncg     rms          rms(c)
DAV:   1    -0.869504356643E+03   -0.11947E-03   -0.56533E-03  2840   0.102E-01    0.400E-02
RMM:   2    -0.869504437861E+03   -0.81218E-04   -0.31005E-04  1365   0.370E-02
  18 F= -.89030603E+03 E0= -.89030603E+03  d E =-.139372E-01  mag=     2.0000
       N       E                     dE             d eps       ncg     rms          rms(c)
DAV:   1    -0.869504520392E+03   -0.16375E-03   -0.11799E-03  2584   0.467E-02    0.319E-02
RMM:   2    -0.869504591179E+03   -0.70786E-04   -0.14916E-04  1256   0.209E-02
  19 F= -.89030618E+03 E0= -.89030618E+03  d E =-.140836E-01  mag=     2.0000
       N       E                     dE             d eps       ncg     rms          rms(c)
DAV:   1    -0.869504665211E+03   -0.14482E-03   -0.35946E-04  1656   0.209E-02    0.291E-02
RMM:   2    -0.869504735575E+03   -0.70364E-04   -0.12296E-04  1184   0.159E-02
  20 F= -.89030633E+03 E0= -.89030633E+03  d E =-.142308E-01  mag=     2.0000
       N       E                     dE             d eps       ncg     rms          rms(c)
DAV:   1    -0.869504213382E+03    0.45183E-03   -0.54534E-01  2336   0.940E-01    0.191E-01
RMM:   2    -0.869506227906E+03   -0.20145E-02   -0.22973E-02  2671   0.333E-01    0.168E-01
RMM:   3    -0.869506886435E+03   -0.65853E-03   -0.65950E-03  3155   0.979E-02    0.146E-01
RMM:   4    -0.869506962329E+03   -0.75894E-04   -0.13015E-03  2330   0.524E-02    0.120E-01
RMM:   5    -0.869507258154E+03   -0.29583E-03   -0.20975E-03  2434   0.514E-02    0.765E-02
RMM:   6    -0.869507310811E+03   -0.52657E-04   -0.81633E-04  1498   0.355E-02
  21 F= -.89030884E+03 E0= -.89030884E+03  d E =-.251489E-02  mag=     2.0000
