 vasp.5.3.5 31Mar14 (build May 27 2014 14:39:49) gamma-only                     
  
 executed on           LinuxIFORT date 2020.11.23  08:27:07
 running on   48 total cores
 distrk:  each k-point on   48 cores,    1 groups
 distr:  one band on NCORES_PER_BAND=   6 cores,    8 groups


--------------------------------------------------------------------------------------------------------


 INCAR:
 POTCAR:    PAW_PBE Ce 23Dec2003                  
 POTCAR:    PAW_PBE O 08Apr2002                   
 POTCAR:    PAW_PBE Pt 04Feb2005                  
 POTCAR:    PAW_PBE Ce 23Dec2003                  
   VRHFIN =Ce : [core= Kr 4d10]                                                 
   LEXCH  = PE                                                                  
   EATOM  =  1063.0861 eV,   78.1346 Ry                                         
                                                                                
   TITEL  = PAW_PBE Ce 23Dec2003                                                
   LULTRA =        F    use ultrasoft PP ?                                      
   IUNSCR =        1    unscreen: 0-lin 1-nonlin 2-no                           
   RPACOR =    1.800    partial core radius                                     
   POMASS =  140.115; ZVAL   =   12.000    mass and valenz                      
   RCORE  =    2.700    outmost cutoff radius                                   
   RWIGS  =    2.500; RWIGS  =    1.323    wigner-seitz radius (au A)           
   ENMAX  =  273.042; ENMIN  =  204.781 eV                                      
   RCLOC  =    1.810    cutoff for local pot                                    
   LCOR   =        T    correct aug charges                                     
   LPAW   =        T    paw PP                                                  
   EAUG   =  580.196                                                            
   DEXC   =    0.000                                                            
   RMAX   =    2.749    core radius for proj-oper                               
   RAUG   =    1.300    factor for augmentation sphere                          
   RDEP   =    2.810    radius for radial grids                                 
   RDEPT  =    2.162    core radius for aug-charge                              
                                                                                
   Atomic configuration                                                         
   14 entries                                                                   
     n  l   j            E        occ.                                          
     1  0  0.50    -40258.9816   2.0000                                         
     2  0  0.50     -6445.4884   2.0000                                         
     2  1  1.50     -5771.7470   6.0000                                         
     3  0  0.50     -1387.9739   2.0000                                         
     3  1  1.50     -1173.8158   6.0000                                         
     3  2  2.50      -869.9108  10.0000                                         
     4  0  0.50      -280.8706   2.0000                                         
     4  1  1.50      -210.9815   6.0000                                         
     4  2  2.50      -110.4558  10.0000                                         
     5  0  0.50       -40.5819   2.0000                                         
     6  0  0.50        -3.7444   2.0000                                         
     5  1  1.50       -23.2188   6.0000                                         
     5  2  2.50        -3.0598   1.0000                                         
     4  3  2.50        -5.3970   1.0000                                         
   Description                                                                  
     l       E           TYP  RCUT    TYP  RCUT                                 
     0    -40.5819164     23  1.500                                             
     0     -3.7443793     23  2.300                                             
     1    -23.2188445     23  2.000                                             
     1     40.8174780     23  2.300                                             
     2     -3.0597556     23  2.500                                             
     2     13.6058260     23  2.500                                             
     3     -5.3970469     23  2.700                                             
     3     -5.8505052     23  2.700                                             
  local pseudopotential read in
  partial core-charges read in
  partial kinetic energy density read in
  atomic valenz-charges read in
  non local Contribution for L=           0  read in
    real space projection operators read in
  non local Contribution for L=           0  read in
    real space projection operators read in
  non local Contribution for L=           1  read in
    real space projection operators read in
  non local Contribution for L=           1  read in
    real space projection operators read in
  non local Contribution for L=           2  read in
    real space projection operators read in
  non local Contribution for L=           2  read in
    real space projection operators read in
  non local Contribution for L=           3  read in
    real space projection operators read in
  non local Contribution for L=           3  read in
    real space projection operators read in
    PAW grid and wavefunctions read in
 
   number of l-projection  operators is LMAX  =           8
   number of lm-projection operators is LMMAX =          32
 
 POTCAR:    PAW_PBE O 08Apr2002                   
   VRHFIN =O: s2p4                                                              
   LEXCH  = PE                                                                  
   EATOM  =   432.3788 eV,   31.7789 Ry                                         
                                                                                
   TITEL  = PAW_PBE O 08Apr2002                                                 
   LULTRA =        F    use ultrasoft PP ?                                      
   IUNSCR =        1    unscreen: 0-lin 1-nonlin 2-no                           
   RPACOR =    1.200    partial core radius                                     
   POMASS =   16.000; ZVAL   =    6.000    mass and valenz                      
   RCORE  =    1.520    outmost cutoff radius                                   
   RWIGS  =    1.550; RWIGS  =    0.820    wigner-seitz radius (au A)           
   ENMAX  =  400.000; ENMIN  =  300.000 eV                                      
   ICORE  =        2    local potential                                         
   LCOR   =        T    correct aug charges                                     
   LPAW   =        T    paw PP                                                  
   EAUG   =  605.392                                                            
   DEXC   =    0.000                                                            
   RMAX   =    1.553    core radius for proj-oper                               
   RAUG   =    1.300    factor for augmentation sphere                          
   RDEP   =    1.550    radius for radial grids                                 
   RDEPT  =    1.329    core radius for aug-charge                              
                                                                                
   Atomic configuration                                                         
    4 entries                                                                   
     n  l   j            E        occ.                                          
     1  0  0.50      -514.6923   2.0000                                         
     2  0  0.50       -23.9615   2.0000                                         
     2  1  0.50        -9.0305   4.0000                                         
     3  2  1.50        -9.5241   0.0000                                         
   Description                                                                  
     l       E           TYP  RCUT    TYP  RCUT                                 
     0    -23.9615318     23  1.200                                             
     0     -9.5240782     23  1.200                                             
     1     -9.0304911     23  1.520                                             
     1      8.1634956     23  1.520                                             
     2     -9.5240782      7  1.500                                             
  local pseudopotential read in
  partial core-charges read in
  partial kinetic energy density read in
  kinetic energy density of atom read in
  atomic valenz-charges read in
  non local Contribution for L=           0  read in
    real space projection operators read in
  non local Contribution for L=           0  read in
    real space projection operators read in
  non local Contribution for L=           1  read in
    real space projection operators read in
  non local Contribution for L=           1  read in
    real space projection operators read in
    PAW grid and wavefunctions read in
 
   number of l-projection  operators is LMAX  =           4
   number of lm-projection operators is LMMAX =           8
 
 POTCAR:    PAW_PBE Pt 04Feb2005                  
   VRHFIN =Pt: s1d9                                                             
   LEXCH  = PE                                                                  
   EATOM  =   729.1176 eV,   53.5886 Ry                                         
                                                                                
   TITEL  = PAW_PBE Pt 04Feb2005                                                
   LULTRA =        F    use ultrasoft PP ?                                      
   IUNSCR =        1    unscreen: 0-lin 1-nonlin 2-no                           
   RPACOR =    2.330    partial core radius                                     
   POMASS =  195.080; ZVAL   =   10.000    mass and valenz                      
   RCORE  =    2.600    outmost cutoff radius                                   
   RWIGS  =    2.750; RWIGS  =    1.455    wigner-seitz radius (au A)           
   ENMAX  =  230.283; ENMIN  =  172.712 eV                                      
   ICORE  =        3    local potential                                         
   LCOR   =        T    correct aug charges                                     
   LPAW   =        T    paw PP                                                  
   EAUG   =  358.966                                                            
   DEXC   =    0.000                                                            
   RMAX   =    2.658    core radius for proj-oper                               
   RAUG   =    1.300    factor for augmentation sphere                          
   RDEP   =    2.761    radius for radial grids                                 
   RDEPT  =    2.203    core radius for aug-charge                              
                                                                                
   Atomic configuration                                                         
   16 entries                                                                   
     n  l   j            E        occ.                                          
     1  0  0.50    -78401.1885   2.0000                                         
     2  0  0.50    -13770.7750   2.0000                                         
     2  1  1.50    -11931.0468   6.0000                                         
     3  0  0.50     -3234.7234   2.0000                                         
     3  1  1.50     -2699.2216   6.0000                                         
     3  2  2.50     -2119.5714  10.0000                                         
     4  0  0.50      -695.1528   2.0000                                         
     4  1  1.50      -519.6034   6.0000                                         
     4  2  2.50      -306.6786  10.0000                                         
     4  3  3.50       -70.1041  14.0000                                         
     5  0  0.50      -101.7747   2.0000                                         
     5  1  1.50       -55.9873   6.0000                                         
     5  2  2.50        -6.1423   9.0000                                         
     6  0  0.50        -5.6573   1.0000                                         
     6  1  1.50        -6.8029   0.0000                                         
     5  3  2.50        -1.3606   0.0000                                         
   Description                                                                  
     l       E           TYP  RCUT    TYP  RCUT                                 
     2     -6.1423404     23  2.500                                             
     2     -7.5029230     23  2.500                                             
     0     -5.6573207     23  2.500                                             
     0      0.7416693     23  2.500                                             
     1     -2.7211652     23  2.600                                             
     1     20.4087390     23  2.600                                             
     3     -1.3605826     23  2.500                                             
  local pseudopotential read in
  partial core-charges read in
  partial kinetic energy density read in
  atomic valenz-charges read in
  non local Contribution for L=           2  read in
    real space projection operators read in
  non local Contribution for L=           2  read in
    real space projection operators read in
  non local Contribution for L=           0  read in
    real space projection operators read in
  non local Contribution for L=           0  read in
    real space projection operators read in
  non local Contribution for L=           1  read in
    real space projection operators read in
  non local Contribution for L=           1  read in
    real space projection operators read in
    PAW grid and wavefunctions read in
 
   number of l-projection  operators is LMAX  =           6
   number of lm-projection operators is LMMAX =          18
 
 Optimization of the real space projectors (new method)

 maximal supplied QI-value         = 13.98
 optimisation between [QCUT,QGAM] = [ 10.21, 20.42] = [ 29.18,116.73] Ry 
 Optimized for a Real-space Cutoff    1.65 Angstroem

   l    n(q)    QCUT    max X(q) W(low)/X(q) W(high)/X(q)  e(spline) 
   0     10    10.208     8.553    0.18E-04    0.75E-05    0.12E-06
   0     10    10.208     8.106    0.26E-04    0.16E-04    0.24E-06
   1     10    10.208     4.160    0.93E-05    0.96E-06    0.75E-07
   1     10    10.208     3.597    0.23E-04    0.26E-04    0.15E-06
   2      9    10.208     8.183    0.11E-03    0.28E-03    0.51E-06
   2      9    10.208     6.077    0.74E-04    0.19E-03    0.37E-06
   3      9    10.208   116.013    0.19E-03    0.98E-05    0.18E-06
   3      9    10.208   108.937    0.19E-03    0.10E-04    0.18E-06
 Optimization of the real space projectors (new method)

 maximal supplied QI-value         = 24.76
 optimisation between [QCUT,QGAM] = [ 10.15, 20.30] = [ 28.85,115.39] Ry 
 Optimized for a Real-space Cutoff    1.51 Angstroem

   l    n(q)    QCUT    max X(q) W(low)/X(q) W(high)/X(q)  e(spline) 
   0      9    10.150    20.381    0.17E-03    0.18E-03    0.41E-06
   0      9    10.150    15.268    0.18E-03    0.20E-03    0.43E-06
   1      9    10.150     5.964    0.16E-03    0.20E-03    0.36E-06
   1      9    10.150     5.382    0.13E-03    0.16E-03    0.33E-06
 Optimization of the real space projectors (new method)

 maximal supplied QI-value         = 14.36
 optimisation between [QCUT,QGAM] = [ 10.20, 20.39] = [ 29.12,116.47] Ry 
 Optimized for a Real-space Cutoff    1.55 Angstroem

   l    n(q)    QCUT    max X(q) W(low)/X(q) W(high)/X(q)  e(spline) 
   2      9    10.197    66.195    0.14E-03    0.26E-03    0.16E-06
   2      9    10.197    64.643    0.14E-03    0.26E-03    0.16E-06
   0      9    10.197    95.520    0.52E-04    0.23E-04    0.61E-07
   0      9    10.197    63.403    0.50E-04    0.22E-04    0.58E-07
   1      9    10.197    19.961    0.18E-03    0.80E-04    0.90E-07
   1      9    10.197    13.289    0.15E-03    0.68E-04    0.78E-07
  PAW_PBE Ce 23Dec2003                  :
 energy of atom  1       EATOM=-1063.0861
 kinetic energy error for atom=    0.0451 (will be added to EATOM!!)
  PAW_PBE O 08Apr2002                   :
 energy of atom  2       EATOM= -432.3788
 kinetic energy error for atom=    0.1156 (will be added to EATOM!!)
  PAW_PBE Pt 04Feb2005                  :
 energy of atom  3       EATOM= -729.1176
 kinetic energy error for atom=    0.0056 (will be added to EATOM!!)
 
 
 POSCAR: CeO2-110-l3-p23:                        
  positions in direct lattice
  No initial velocities read in
 exchange correlation table for  LEXCH =        8
   RHO(1)=    0.500       N(1)  =     2000
   RHO(2)=  100.500       N(2)  =     4000

 VTST: version 3.1, (03/28/14)

 CHAIN: initializing optimizer
 
 OPT: Using VASP Conjugate-Gradient optimizer
 CHAIN: Read ICHAIN            0
 
 POSCAR: CeO2-110-l3-p23:                        
  positions in direct lattice
  No initial velocities read in
 


--------------------------------------------------------------------------------------------------------


 ion  position               nearest neighbor table
   1  0.771  0.167  0.000-  37 2.38  41 2.38  40 2.38  45 2.38  53 2.38  55 2.38
   2  0.771  0.500  0.000-  37 2.38  39 2.38  41 2.38  47 2.38  59 2.38  60 2.38
   3  0.271  0.167  0.000-  42 2.38  46 2.38  44 2.38  38 2.38  51 2.38  52 2.38
   4  0.771  0.833  0.000-  39 2.38  47 2.38  45 2.38  40 2.38  50 2.38  54 2.38
   5  0.271  0.500  0.000-  42 2.38  43 2.38  46 2.38  48 2.38  57 2.38  58 2.38
   6  0.271  0.833  0.000-  43 2.38  48 2.38  44 2.38  38 2.38  49 2.38  56 2.38
   7  0.521  0.000  0.079-  61 2.36  50 2.38  51 2.38  55 2.38  49 2.38  45 2.38  44 2.38  67 2.38

   8  0.521  0.667  0.079-  62 2.37  63 2.37  49 2.38  50 2.38  57 2.38  60 2.38  39 2.38  43 2.38

   9  0.021  0.000  0.079-  66 2.36  53 2.38  54 2.38  56 2.38  52 2.38  40 2.38  38 2.38  65 2.39

  10  0.521  0.333  0.079-  71 2.37  55 2.38  51 2.38  60 2.38  57 2.38  46 2.38  37 2.38  69 2.39

  11  0.021  0.333  0.079-  70 2.37  53 2.38  52 2.38  59 2.38  58 2.38  42 2.38  41 2.38  72 2.39

  12  0.021  0.667  0.079-  68 2.37  64 2.37  54 2.38  56 2.38  58 2.38  59 2.38  47 2.38  48 2.38

  13  0.771  0.168  0.158-  80 2.35  73 2.35  71 2.37  70 2.37  61 2.38  66 2.38  53 2.39  55 2.39

  14  0.771  0.835  0.157-  74 2.36  84 2.36  54 2.37  50 2.37  66 2.37  61 2.37  64 2.39  63 2.39

  15  0.271  0.167  0.158-  72 2.35  69 2.35  65 2.36  67 2.36  51 2.40  52 2.40  79 2.41  83 2.42

  16  0.771  0.498  0.157-  70 2.36  71 2.36  78 2.37  76 2.37  59 2.38  60 2.38  63 2.39  64 2.39

  17  0.271  0.499  0.158-  82 2.35  81 2.35  62 2.38  68 2.38  69 2.38  72 2.38  58 2.39  57 2.39

  18  0.271  0.833  0.157-  75 2.35  77 2.35  56 2.38  49 2.38  68 2.38  62 2.38  67 2.39  65 2.39

  19  0.020  0.666  0.233-  87 2.32  64 2.32  68 2.34  76 2.38  92 2.38  77 2.39  84 2.40  82 2.40

  20  0.522  0.666  0.233-  93 2.32  63 2.32  62 2.34  78 2.38  90 2.38  75 2.39  74 2.40  81 2.40

  21  0.022  0.333  0.236-  72 2.36  76 2.36  80 2.37  94 2.37  82 2.37  83 2.38  70 2.39  95 2.45

  22  0.022  0.001  0.234-  65 2.33  66 2.35  86 2.36  84 2.36  83 2.37  80 2.38  77 2.38  96 2.44

  23  0.520  0.001  0.234-  67 2.33  61 2.35  89 2.36  74 2.36  79 2.37  73 2.38  75 2.38  91 2.44

  24  0.520  0.333  0.236-  69 2.36  78 2.37  73 2.37  81 2.37  85 2.37  79 2.38  71 2.38  88 2.45

  25  0.771  0.498  0.315- 107 2.32 106 2.33  85 2.37  94 2.38  92 2.40  90 2.40  76 2.41  78 2.41

  26  0.771  0.168  0.316-  94 2.34  85 2.34 104 2.36  86 2.36 103 2.36  89 2.37  73 2.44  80 2.45

  27  0.271  0.505  0.316-  95 2.34  88 2.34  87 2.38  93 2.38  81 2.41  82 2.41 105 2.52 108 2.53
                           109 3.23
  28  0.271  0.826  0.314-  96 2.35  91 2.35  87 2.36  93 2.36  75 2.40  77 2.40  99 2.49  98 2.50
                           109 3.20
  29  0.271  0.166  0.319- 101 2.28 100 2.29  83 2.41  79 2.42  88 2.44  95 2.44  91 2.48  96 2.48

  30  0.771  0.838  0.313-  90 2.36  92 2.36  97 2.36 102 2.36  89 2.37  86 2.37  84 2.39  74 2.39

  31  0.017  0.006  0.386- 103 2.20 101 2.22  96 2.23  86 2.26 102 2.29
  32  0.525  0.005  0.385- 104 2.21 100 2.22  91 2.23  89 2.26  97 2.29
  33  0.007  0.668  0.384- 106 2.21  92 2.23 108 2.29  98 2.29 102 2.30  87 2.34 109 3.05
  34  0.536  0.669  0.384- 107 2.21  90 2.23 105 2.29  99 2.30  97 2.30  93 2.34 109 3.04
  35  0.018  0.330  0.390-  95 2.30  94 2.33 103 2.39 106 2.42 101 2.45
  36  0.525  0.330  0.390-  88 2.31  85 2.33 104 2.39 107 2.43 100 2.45
  37  0.646  0.333  0.000-   1 2.38   2 2.38  10 2.38
  38  0.146  0.000  0.000-   3 2.38   6 2.38   9 2.38
  39  0.646  0.667  0.000-   4 2.38   2 2.38   8 2.38
  40  0.896  0.000  0.000-   1 2.38   4 2.38   9 2.38
  41  0.896  0.333  0.000-   1 2.38   2 2.38  11 2.38
  42  0.146  0.333  0.000-   3 2.38   5 2.38  11 2.38
  43  0.396  0.667  0.000-   6 2.38   5 2.38   8 2.38
  44  0.396  0.000  0.000-   3 2.38   6 2.38   7 2.38
  45  0.646  0.000  0.000-   1 2.38   4 2.38   7 2.38
  46  0.396  0.333  0.000-   3 2.38   5 2.38  10 2.38
  47  0.896  0.667  0.000-   4 2.38   2 2.38  12 2.38
  48  0.146  0.667  0.000-   6 2.38   5 2.38  12 2.38
  49  0.396  0.833  0.079-   8 2.38   7 2.38   6 2.38  18 2.38
  50  0.646  0.833  0.079-  14 2.37   8 2.38   7 2.38   4 2.38
  51  0.396  0.167  0.079-  10 2.38   7 2.38   3 2.38  15 2.40
  52  0.146  0.167  0.079-  11 2.38   9 2.38   3 2.38  15 2.40
  53  0.896  0.167  0.079-  11 2.38   9 2.38   1 2.38  13 2.39
  54  0.896  0.833  0.079-  14 2.37  12 2.38   9 2.38   4 2.38
  55  0.646  0.167  0.079-  10 2.38   7 2.38   1 2.38  13 2.39
  56  0.146  0.833  0.079-  12 2.38   9 2.38   6 2.38  18 2.38
  57  0.396  0.500  0.079-   8 2.38  10 2.38   5 2.38  17 2.39
  58  0.146  0.500  0.079-  11 2.38  12 2.38   5 2.38  17 2.39
  59  0.896  0.500  0.079-  11 2.38  12 2.38   2 2.38  16 2.38
  60  0.646  0.500  0.079-   8 2.38  10 2.38   2 2.38  16 2.38
  61  0.646  0.001  0.157-  23 2.35   7 2.36  14 2.37  13 2.38
  62  0.396  0.666  0.157-  20 2.34   8 2.37  18 2.38  17 2.38
  63  0.647  0.667  0.156-  20 2.32   8 2.37  14 2.39  16 2.39
  64  0.895  0.667  0.157-  19 2.32  12 2.37  14 2.39  16 2.39
  65  0.147  0.002  0.157-  22 2.33  15 2.36   9 2.39  18 2.39
  66  0.897  0.001  0.157-  22 2.35   9 2.36  14 2.37  13 2.38
  67  0.396  0.002  0.157-  23 2.33  15 2.36   7 2.38  18 2.39
  68  0.147  0.666  0.157-  19 2.34  12 2.37  18 2.38  17 2.38
  69  0.396  0.332  0.158-  15 2.35  24 2.36  17 2.38  10 2.39
  70  0.897  0.334  0.157-  16 2.36  11 2.37  13 2.37  21 2.39
  71  0.646  0.334  0.157-  16 2.36  10 2.37  13 2.37  24 2.38
  72  0.147  0.331  0.158-  15 2.35  21 2.36  17 2.38  11 2.39
  73  0.645  0.167  0.235-  13 2.35  24 2.37  23 2.38  26 2.44
  74  0.646  0.836  0.234-  14 2.36  23 2.36  30 2.39  20 2.40
  75  0.395  0.833  0.234-  18 2.35  23 2.38  20 2.39  28 2.40
  76  0.897  0.498  0.235-  21 2.36  16 2.37  19 2.38  25 2.41
  77  0.147  0.833  0.234-  18 2.35  22 2.38  19 2.39  28 2.40
  78  0.645  0.499  0.235-  24 2.37  16 2.37  20 2.38  25 2.41
  79  0.396  0.166  0.239-  23 2.37  24 2.38  15 2.41  29 2.42
  80  0.897  0.167  0.235-  13 2.35  21 2.37  22 2.38  26 2.45
  81  0.395  0.499  0.235-  17 2.35  24 2.37  20 2.40  27 2.41
  82  0.147  0.499  0.235-  17 2.35  21 2.37  19 2.40  27 2.41
  83  0.147  0.166  0.239-  22 2.37  21 2.38  29 2.41  15 2.42
  84  0.897  0.836  0.234-  14 2.36  22 2.36  30 2.39  19 2.40
  85  0.647  0.331  0.313-  36 2.33  26 2.34  24 2.37  25 2.37
  86  0.897  0.003  0.311-  31 2.26  22 2.36  26 2.36  30 2.37
  87  0.139  0.666  0.310-  19 2.32  33 2.34  28 2.36  27 2.38
  88  0.394  0.340  0.317-  36 2.31  27 2.34  29 2.44  24 2.45
  89  0.646  0.003  0.311-  32 2.26  23 2.36  26 2.37  30 2.37
  90  0.652  0.670  0.310-  34 2.23  30 2.36  20 2.38  25 2.40
  91  0.397  0.990  0.316-  32 2.23  28 2.35  23 2.44  29 2.48
  92  0.891  0.670  0.310-  33 2.23  30 2.36  19 2.38  25 2.40
  93  0.403  0.666  0.310-  20 2.32  34 2.34  28 2.36  27 2.38
  94  0.895  0.331  0.313-  35 2.33  26 2.34  21 2.37  25 2.38
  95  0.148  0.341  0.318-  35 2.30  27 2.34  29 2.44  21 2.45
  96  0.146  0.989  0.316-  31 2.23  28 2.35  22 2.44  29 2.48
  97  0.639  0.840  0.389-  32 2.29  34 2.30  30 2.36
  98  0.151  0.807  0.400- 109 2.14  33 2.29  28 2.50
  99  0.392  0.807  0.399- 109 2.14  34 2.30  28 2.49
 100  0.400  0.155  0.392-  32 2.22  29 2.29  36 2.45
 101  0.142  0.156  0.392-  31 2.22  29 2.28  35 2.45
 102  0.904  0.840  0.389-  31 2.29  33 2.30  30 2.36
 103  0.899  0.158  0.393-  31 2.20  26 2.36  35 2.39
 104  0.643  0.158  0.393-  32 2.21  26 2.36  36 2.39
 105  0.391  0.532  0.402- 109 2.12  34 2.29  27 2.52
 106  0.902  0.507  0.389-  33 2.21  25 2.33  35 2.42
 107  0.641  0.507  0.389-  34 2.21  25 2.32  36 2.43
 108  0.152  0.533  0.402- 109 2.12  33 2.29  27 2.53
 109  0.272  0.670  0.421- 108 2.12 105 2.12  98 2.14  99 2.14  34 3.04  33 3.05  28 3.20  27 3.23

 

IMPORTANT INFORMATION: All symmetrisations will be switched off!
NOSYMM: (Re-)initialisation of all symmetry stuff for point group C_1.

 
 
 KPOINTS: CeO2-111-3x3-9layers         ! Comment  

Automatic generation of k-mesh.
Space group operators:
 irot       det(A)        alpha          n_x          n_y          n_z        tau_x        tau_y        tau_z
    1     1.000000     0.000000     1.000000     0.000000     0.000000     0.000000     0.000000     0.000000
 
 Subroutine IBZKPT returns following result:
 ===========================================
 
 Found      1 irreducible k-points:
 
 Following reciprocal coordinates:
            Coordinates               Weight
  0.000000  0.000000  0.000000      1.000000
 
 Following cartesian coordinates:
            Coordinates               Weight
  0.000000  0.000000  0.000000      1.000000
 


--------------------------------------------------------------------------------------------------------




 Dimension of arrays:
   k-points           NKPTS =      1   k-points in BZ     NKDIM =      1   number of bands    NBANDS=    584
   number of dos      NEDOS =    301   number of ions     NIONS =    109
   non local maximal  LDIM  =      8   non local SUM 2l+1 LMDIM =     32
   total plane-waves  NPLWV = 933120
   max r-space proj   IRMAX =   5592   max aug-charges    IRDMAX= 143303
   dimension x,y,z NGX =    72 NGY =   80 NGZ =  162
   dimension x,y,z NGXF=   144 NGYF=  160 NGZF=  324
   support grid    NGXF=   288 NGYF=  320 NGZF=  648
   ions per type =              36  72   1
 NGX,Y,Z   is equivalent  to a cutoff of  10.90, 11.42, 10.90 a.u.
 NGXF,Y,Z  is equivalent  to a cutoff of  21.80, 22.84, 21.80 a.u.


 I would recommend the setting:
   dimension x,y,z NGX =    72 NGY =   76 NGZ =  161
 SYSTEM =  unknown system                          
 POSCAR =  CeO2-110-l3-p23:                        

 Startparameter for this run:
   NWRITE =      2    write-flag & timer
   PREC   = accura    normal or accurate (medium, high low for compatibility)
   ISTART =      0    job   : 0-new  1-cont  2-samecut
   ICHARG =      2    charge: 1-file 2-atom 10-const
   ISPIN  =      2    spin polarized calculation?
   LNONCOLLINEAR =      F non collinear calculations
   LSORBIT =      F    spin-orbit coupling
   INIWAV =      1    electr: 0-lowe 1-rand  2-diag
   LASPH  =      T    aspherical Exc in radial PAW
   METAGGA=      F    non-selfconsistent MetaGGA calc.

 Electronic Relaxation 1
   ENCUT  =  400.0 eV  29.40 Ry    5.42 a.u.  17.91 18.99 40.29*2*pi/ulx,y,z
   ENINI  =  400.0     initial cutoff
   ENAUG  =  605.4 eV  augmentation charge cutoff
   NELM   =    100;   NELMIN=  2; NELMDL= -5     # of ELM steps 
   EDIFF  = 0.1E-03   stopping-criterion for ELM
   LREAL  =      T    real-space projection
   NLSPLINE    = F    spline interpolate recip. space projectors
   LCOMPAT=      F    compatible to vasp.4.4
   GGA_COMPAT  = T    GGA compatible to vasp.4.4-vasp.4.6
   LMAXPAW     = -100 max onsite density
   LMAXMIX     =    6 max onsite mixed and CHGCAR
   VOSKOWN=      0    Vosko Wilk Nusair interpolation
   ROPT   =   -0.00025  -0.00025  -0.00025
 Ionic relaxation
   EDIFFG = -.5E-01   stopping-criterion for IOM
   NSW    =    100    number of steps for IOM
   NBLOCK =      1;   KBLOCK =    100    inner block; outer block 
   IBRION =      2    ionic relax: 0-MD 1-quasi-New 2-CG
   NFREE  =      1    steps in history (QN), initial steepest desc. (CG)
   ISIF   =      2    stress and relaxation
   IWAVPR =     11    prediction:  0-non 1-charg 2-wave 3-comb
   ISYM   =      0    0-nonsym 1-usesym 2-fastsym
   LCORR  =      T    Harris-Foulkes like correction to forces

   POTIM  = 0.1000    time-step for ionic-motion
   TEIN   =    0.0    initial temperature
   TEBEG  =    0.0;   TEEND  =   0.0 temperature during run
   SMASS  =  -3.00    Nose mass-parameter (am)
   estimated Nose-frequenzy (Omega)   =  0.10E-29 period in steps =****** mass=  -0.276E-26a.u.
   SCALEE = 1.0000    scale energy and forces
   NPACO  =    256;   APACO  = 16.0  distance and # of slots for P.C.
   PSTRESS=    0.0 pullay stress

  Mass of Ions in am
   POMASS = 140.12 16.00195.08
  Ionic Valenz
   ZVAL   =  12.00  6.00 10.00
  Atomic Wigner-Seitz radii
   RWIGS  =  -1.00 -1.00 -1.00
  virtual crystal weights 
   VCA    =   1.00  1.00  1.00
   NELECT =     874.0000    total number of electrons
   NUPDOWN=      -1.0000    fix difference up-down

 DOS related values:
   EMIN   =  10.00;   EMAX   =-10.00  energy-range for DOS
   EFERMI =   0.00
   ISMEAR =     0;   SIGMA  =   0.05  broadening in eV -4-tet -1-fermi 0-gaus

 Electronic relaxation 2 (details)
   IALGO  =     68    algorithm
   LDIAG  =      T    sub-space diagonalisation (order eigenvalues)
   LSUBROT=      F    optimize rotation matrix (better conditioning)
   TURBO    =      0    0=normal 1=particle mesh
   IRESTART =      0    0=no restart 2=restart with 2 vectors
   NREBOOT  =      0    no. of reboots
   NMIN     =      0    reboot dimension
   EREF     =   0.00    reference energy to select bands
   IMIX   =      4    mixing-type and parameters
     AMIX     =   0.20;   BMIX     =  0.00
     AMIX_MAG =   0.80;   BMIX_MAG =  0.00
     AMIN     =   0.10
     WC   =   100.;   INIMIX=   1;  MIXPRE=   1;  MAXMIX= -45

 Intra band minimization:
   WEIMIN = 0.0010     energy-eigenvalue tresh-hold
   EBREAK =  0.43E-07  absolut break condition
   DEPER  =   0.30     relativ break condition  

   TIME   =   0.40     timestep for ELM

  volume/ion in A,a.u.               =      28.98       195.59
  Fermi-wavevector in a.u.,A,eV,Ry     =   1.066735  2.015837 15.482385  1.137923
  Thomas-Fermi vector in A             =   2.202329
 
 Write flags
   LWAVE  =      T    write WAVECAR
   LCHARG =      T    write CHGCAR
   LVTOT  =      F    write LOCPOT, total local potential
   LVHAR  =      F    write LOCPOT, Hartree potential only
   LELF   =      F    write electronic localiz. function (ELF)
   LORBIT =     11    0 simple, 1 ext, 2 COOP (PROOUT)


 Dipole corrections
   LMONO  =      F    monopole corrections only (constant potential shift)
   LDIPOL =      T    correct potential (dipole corrections)
   IDIPOL =      3    1-x, 2-y, 3-z, 4-all directions 
   EPSILON=  1.0000000 bulk dielectric constant

 LDA+U is selected, type is set to LDAUTYPE =  2
   angular momentum for each species LDAUL =     3   -1   -1
   U (eV)           for each species LDAUU =   4.5  0.0  0.0
   J (eV)           for each species LDAUJ =   0.0  0.0  0.0
 Exchange correlation treatment:
   GGA     =    --    GGA type
   LEXCH   =     8    internal setting for exchange type
   VOSKOWN=      0    Vosko Wilk Nusair interpolation
   LHFCALC =     F    Hartree Fock is set to
   LHFONE  =     F    Hartree Fock one center treatment
   AEXX    =    0.0000 exact exchange contribution

 Linear response parameters
   LEPSILON=     F    determine dielectric tensor
   LRPA    =     F    only Hartree local field effects (RPA)
   LNABLA  =     F    use nabla operator in PAW spheres
   LVEL    =     F    velocity operator in full k-point grid
   LINTERFAST=   F  fast interpolation
   KINTER  =     0    interpolate to denser k-point grid
   CSHIFT  =0.1000    complex shift for real part using Kramers Kronig
   OMEGAMAX=  -1.0    maximum frequency
   DEG_THRESHOLD= 0.2000000E-02 threshold for treating states as degnerate
   RTIME   =    0.100 relaxation time in fs

 Orbital magnetization related:
   ORBITALMAG=     F  switch on orbital magnetization
   LCHIMAG   =     F  perturbation theory with respect to B field
   DQ        =  0.001000  dq finite difference perturbation B field



--------------------------------------------------------------------------------------------------------


 conjugate gradient relaxation of ions
   using selective dynamics as specified on POSCAR
 charge density and potential will be updated during run
 spin polarized calculation
 RMM-DIIS sequential band-by-band and
  variant of blocked Davidson during initial phase
 perform sub-space diagonalisation
    before iterative eigenvector-optimisation
 modified Broyden-mixing scheme, WC =      100.0
 initial mixing is a Kerker type mixing with AMIX =  0.2000 and BMIX =      0.0010
 Hartree-type preconditioning will be used
 using additional bands          147
 real space projection scheme for non local part
 use partial core corrections
 calculate Harris-corrections to forces 
   (improved forces if not selfconsistent)
 use gradient corrections 
 use of overlap-Matrix (Vanderbilt PP)
 Gauss-broadening in eV      SIGMA  =   0.05


--------------------------------------------------------------------------------------------------------


  energy-cutoff  :      400.00
  volume of cell :     3159.12
      direct lattice vectors                 reciprocal lattice vectors
    10.980000000  0.000000000  0.000000000     0.091074681  0.000000000  0.000000000
     0.000000000 11.646048686  0.000000000     0.000000000  0.085866033  0.000000000
     0.000000000  0.000000000 24.705040572     0.000000000  0.000000000  0.040477570

  length of vectors
    10.980000000 11.646048686 24.705040572     0.091074681  0.085866033  0.040477570


 
 k-points in units of 2pi/SCALE and weight: CeO2-111-3x3-9layers         ! Comment  
   0.00000000  0.00000000  0.00000000       1.000
 
 k-points in reciprocal lattice and weights: CeO2-111-3x3-9layers         ! Comment  
   0.00000000  0.00000000  0.00000000       1.000
 
 position of ions in fractional coordinates (direct lattice) 
   0.77120274  0.16666677  0.00000000
   0.77120274  0.50000010  0.00000000
   0.27120274  0.16666677  0.00000000
   0.77120274  0.83333343  0.00000000
   0.27120274  0.50000010  0.00000000
   0.27120274  0.83333343  0.00000000
   0.52120274  0.00000010  0.07856729
   0.52120274  0.66666677  0.07856729
   0.02120274  0.00000010  0.07856729
   0.52120274  0.33333343  0.07856729
   0.02120274  0.33333343  0.07856729
   0.02120274  0.66666677  0.07856729
   0.77126903  0.16776211  0.15753949
   0.77122876  0.83459735  0.15676584
   0.27122601  0.16732377  0.15832590
   0.77123047  0.49847442  0.15728422
   0.27119262  0.49877669  0.15763176
   0.27119871  0.83320054  0.15714676
   0.02012326  0.66626779  0.23258556
   0.52240761  0.66627181  0.23252974
   0.02202540  0.33315837  0.23592272
   0.02224916  0.00061064  0.23376123
   0.52026396  0.00055276  0.23368674
   0.52048843  0.33316713  0.23585409
   0.77133998  0.49812508  0.31523016
   0.77117763  0.16788257  0.31619740
   0.27129626  0.50462652  0.31567434
   0.27130461  0.82620980  0.31414334
   0.27129331  0.16597049  0.31946196
   0.77138871  0.83800562  0.31333675
   0.01740623  0.00565889  0.38555230
   0.52485490  0.00533449  0.38543550
   0.00659964  0.66840099  0.38422416
   0.53631522  0.66851367  0.38411217
   0.01778616  0.33007789  0.39048450
   0.52464328  0.33005631  0.39045648
   0.64620274  0.33333343  0.00000000
   0.14620274  0.00000010  0.00000000
   0.64620274  0.66666677  0.00000000
   0.89620274  0.00000010  0.00000000
   0.89620274  0.33333343  0.00000000
   0.14620274  0.33333343  0.00000000
   0.39620274  0.66666677  0.00000000
   0.39620274  0.00000010  0.00000000
   0.64620274  0.00000010  0.00000000
   0.39620274  0.33333343  0.00000000
   0.89620274  0.66666677  0.00000000
   0.14620274  0.66666677  0.00000000
   0.39620274  0.83333343  0.07856729
   0.64620274  0.83333343  0.07856729
   0.39620274  0.16666677  0.07856729
   0.14620274  0.16666677  0.07856729
   0.89620274  0.16666677  0.07856729
   0.89620274  0.83333343  0.07856729
   0.64620274  0.16666677  0.07856729
   0.14620274  0.83333343  0.07856729
   0.39620274  0.50000010  0.07856729
   0.14620274  0.50000010  0.07856729
   0.89620274  0.50000010  0.07856729
   0.64620274  0.50000010  0.07856729
   0.64593486  0.00060811  0.15656808
   0.39569693  0.66599245  0.15652517
   0.64697240  0.66653261  0.15648719
   0.89547261  0.66656071  0.15656192
   0.14683948  0.00177485  0.15734388
   0.89655526  0.00055128  0.15658732
   0.39557148  0.00164498  0.15727047
   0.14666745  0.66602943  0.15652100
   0.39588886  0.33155594  0.15780300
   0.89668883  0.33382263  0.15703929
   0.64576228  0.33374440  0.15704130
   0.14651320  0.33145303  0.15785857
   0.64532330  0.16742076  0.23461047
   0.64576773  0.83583961  0.23415433
   0.39529349  0.83315775  0.23443452
   0.89703782  0.49849106  0.23525464
   0.14717243  0.83315815  0.23445986
   0.64542634  0.49858844  0.23517085
   0.39581879  0.16623047  0.23877565
   0.89723840  0.16741334  0.23453113
   0.39521141  0.49888503  0.23539088
   0.14723111  0.49898647  0.23537225
   0.14672601  0.16627703  0.23898908
   0.89676688  0.83594190  0.23425930
   0.64741655  0.33136781  0.31348087
   0.89690650  0.00344950  0.31133990
   0.13937558  0.66607546  0.30996938
   0.39439194  0.34028347  0.31740831
   0.64556651  0.00312005  0.31126738
   0.65153022  0.66990701  0.30996056
   0.39685666  0.98957166  0.31557959
   0.89126505  0.66983935  0.31006397
   0.40335016  0.66610320  0.30990904
   0.89537216  0.33082602  0.31346724
   0.14825300  0.34090392  0.31759056
   0.14561417  0.98929459  0.31576479
   0.63862728  0.84037343  0.38862825
   0.15134767  0.80661598  0.39951333
   0.39176488  0.80724372  0.39917267
   0.40026945  0.15534039  0.39192673
   0.14194597  0.15578878  0.39174081
   0.90439171  0.84043028  0.38860852
   0.89944163  0.15783887  0.39290356
   0.64259047  0.15800951  0.39252635
   0.39099913  0.53208919  0.40187206
   0.90169672  0.50651245  0.38935083
   0.64144951  0.50689546  0.38935423
   0.15208560  0.53257192  0.40222213
   0.27176904  0.66957576  0.42053339
 
 position of ions in cartesian coordinates  (Angst):
   8.46780604  1.94100927  0.00000000
   8.46780604  5.82302550  0.00000000
   2.97780604  1.94100927  0.00000000
   8.46780604  9.70504173  0.00000000
   2.97780604  5.82302550  0.00000000
   2.97780604  9.70504173  0.00000000
   5.72280604  0.00000116  1.94100811
   5.72280604  7.76403361  1.94100811
   0.23280604  0.00000116  1.94100811
   5.72280604  3.88201739  1.94100811
   0.23280604  3.88201739  1.94100811
   0.23280604  7.76403361  1.94100811
   8.46853399  1.95376568  3.89201960
   8.46809175  9.71976139  3.87290647
   2.97806156  1.94866073  3.91144788
   8.46811053  5.80525736  3.88571294
   2.97769499  5.80877767  3.89429902
   2.97776187  9.70349402  3.88231717
   0.22095342  7.75938714  5.74603571
   5.73603550  7.75943389  5.74465663
   0.24183894  3.87997864  5.82848044
   0.24429578  0.00711151  5.77508065
   5.71249823  0.00643748  5.77324046
   5.71496299  3.88008061  5.82678494
   8.46931297  5.80118896  7.78777383
   8.46753037  1.95516856  7.81166964
   2.97883290  5.87690499  7.79874746
   2.97892466  9.62207960  7.76092401
   2.97880055  1.93290038  7.89232062
   8.46984802  9.75945420  7.74099723
   0.19112039  0.06590373  9.52508526
   5.76290685  0.06212573  9.52219956
   0.07246400  7.78423043  9.49227337
   5.88874106  7.78554273  9.48950663
   0.19529204  3.84410317  9.64693550
   5.76058323  3.84385189  9.64624312
   7.09530604  3.88201739  0.00000000
   1.60530604  0.00000116  0.00000000
   7.09530604  7.76403361  0.00000000
   9.84030604  0.00000116  0.00000000
   9.84030604  3.88201739  0.00000000
   1.60530604  3.88201739  0.00000000
   4.35030604  7.76403361  0.00000000
   4.35030604  0.00000116  0.00000000
   7.09530604  0.00000116  0.00000000
   4.35030604  3.88201739  0.00000000
   9.84030604  7.76403361  0.00000000
   1.60530604  7.76403361  0.00000000
   4.35030604  9.70504173  1.94100811
   7.09530604  9.70504173  1.94100811
   4.35030604  1.94100927  1.94100811
   1.60530604  1.94100927  1.94100811
   9.84030604  1.94100927  1.94100811
   9.84030604  9.70504173  1.94100811
   7.09530604  1.94100927  1.94100811
   1.60530604  9.70504173  1.94100811
   4.35030604  5.82302550  1.94100811
   1.60530604  5.82302550  1.94100811
   9.84030604  5.82302550  1.94100811
   7.09530604  5.82302550  1.94100811
   7.09236476  0.00708208  3.86802088
   4.34475227  7.75618048  3.86696062
   7.10375695  7.76247124  3.86602237
   9.83228925  7.76279845  3.86786847
   1.61229747  0.02066993  3.88718690
   9.84417672  0.00642023  3.86849615
   4.34337480  0.01915747  3.88537334
   1.61040863  7.75661114  3.86685757
   4.34685973  3.86131664  3.89852953
   9.84564338  3.88771458  3.87966212
   7.09046981  3.88680355  3.87971176
   1.60871495  3.86011810  3.89990226
   7.08564981  1.94979034  5.79606127
   7.09052970  9.73422882  5.78479221
   4.34032250  9.70299574  5.79171422
   9.84947529  5.80545115  5.81197534
   1.61595326  9.70300042  5.79234039
   7.08678119  5.80658519  5.80990536
   4.34609033  1.93592813  5.89896217
   9.85167768  1.94970393  5.79410104
   4.33942125  5.81003935  5.81534123
   1.61659760  5.81122067  5.81488093
   1.61105159  1.93647042  5.90423502
   9.84650038  9.73542012  5.78738558
   7.10863370  3.85912570  7.74455767
   9.84803342  0.04017305  7.69166488
   1.53034392  7.75714722  7.65780603
   4.33042355  3.96295784  7.84158528
   7.08832024  0.03633625  7.68987324
   7.15380187  7.80176961  7.65758824
   4.35748615 11.52459977  7.79640660
   9.78609026  7.80098174  7.66014306
   4.42878471  7.75747028  7.65631536
   9.83118629  3.85281598  7.74422087
   1.62781793  3.97018369  7.84608769
   1.59884356 11.52137293  7.80098196
   7.01212750  9.78702987  9.60107667
   1.66179746  9.39388896  9.86999315
   4.30157840  9.40119964  9.86157706
   4.39495858  1.80910170  9.68256581
   1.55856673  1.81432377  9.67797265
   9.93022100  9.78769193  9.60058925
   9.87586904  1.83819917  9.70669837
   7.05564335  1.84018646  9.69737947
   4.29317050  6.19673666  9.92826566
   9.90063000  5.89886862  9.61892796
   7.04311564  5.90332922  9.61901194
   1.66989985  6.20235855  9.93691398
   2.98402403  7.79791185 10.38929443
 


--------------------------------------------------------------------------------------------------------


 use parallel FFT for wavefunctions z direction half grid
 k-point  1 :   0.0000 0.0000 0.0000  plane waves:   28608

 maximum and minimum number of plane-waves per node :      4774     4761

 maximum number of plane-waves:     28608
 maximum index in each direction: 
   IXMAX=   17   IYMAX=   18   IZMAX=   40
   IXMIN=  -17   IYMIN=  -18   IZMIN=    0

 NGX is ok and might be reduce to  70
 NGY is ok and might be reduce to  74
 NGZ is ok and might be reduce to 162

 real space projection operators:
  total allocation   :      67591.27 KBytes
  max/ min on nodes  :      11489.39      11128.59


 parallel 3D FFT for wavefunctions:
    minimum data exchange during FFTs selected (reduces bandwidth)
 parallel 3D FFT for charge:
    minimum data exchange during FFTs selected (reduces bandwidth)


 total amount of memory used by VASP on root node   108427. kBytes
========================================================================

   base      :      30000. kBytes
   nonlr-proj:      13748. kBytes
   fftplans  :      26017. kBytes
   grid      :      26227. kBytes
   one-center:        933. kBytes
   wavefun   :      11502. kBytes
 
     INWAV:  cpu time    0.00: real time    0.00
 Broyden mixing: mesh for mixing (old mesh)
   NGX = 35   NGY = 37   NGZ = 81
  (NGX  =144   NGY  =160   NGZ  =324)
  gives a total of 104895 points

 initial charge density was supplied:
 charge density of overlapping atoms calculated
 number of electron     874.0000000 magnetization     109.0000000
 keeping initial charge density in first step


--------------------------------------------------------------------------------------------------------


 Maximum index for non-local projection operator          914
 Maximum index for augmentation-charges         2992 (set IRDMAX)


--------------------------------------------------------------------------------------------------------


 First call to EWALD:  gamma=   0.121
 Maximum number of real-space cells 4x 3x 2
 Maximum number of reciprocal cells 2x 2x 4

 FEWALD executed in parallel
    FEWALD:  cpu time    0.00: real time    0.00


----------------------------------------- Iteration    1(   1)  ---------------------------------------


    POTLOK:  cpu time    0.32: real time    0.33
    SETDIJ:  cpu time    2.56: real time    2.56
     EDDAV:  cpu time    9.31: real time    9.31
       DOS:  cpu time    0.00: real time    0.00
    --------------------------------------------
      LOOP:  cpu time   12.19: real time   12.21

 eigenvalue-minimisations  :  2336
 total energy-change (2. order) : 0.1574064E+05  (-0.3360276E+05)
 number of electron     874.0000000 magnetization     109.0000000
 augmentation part      874.0000000 magnetization     109.0000000

 DIPCOR: dipole corrections for dipol
 direction  3 min pos   227,
 dipolmoment           0.000000      0.000000      0.000194 electrons x Angstroem
 Tr[quadrupol]    -19065.642833

 energy correction for charged system         0.000000 eV
 dipol+quadrupol energy correction           -0.000000 eV
 added-field ion interaction         -0.000218 eV  (added to PSCEN)


 Free energy of the ion-electron system (eV)
  ---------------------------------------------------
  alpha Z        PSCENC =      2234.45768432
  Ewald energy   TEWEN  =    254105.04587212
  -Hartree energ DENC   =   -318311.54536966
  -exchange      EXHF   =         0.00000000
  -V(xc)+E(xc)   XCENC  =      2199.26573300
  PAW double counting   =     56265.62943820   -55488.14606379
  entropy T*S    EENTRO =        -0.01900322
  eigenvalues    EBANDS =      4614.41281642
  atomic energy  EATOM  =     70121.53856541
  ---------------------------------------------------
  free energy    TOTEN  =     15740.63967280 eV

  energy without entropy =    15740.65867602  energy(sigma->0) =    15740.64917441


--------------------------------------------------------------------------------------------------------




----------------------------------------- Iteration    1(   2)  ---------------------------------------


     EDDAV:  cpu time    9.89: real time    9.89
       DOS:  cpu time    0.00: real time    0.00
    --------------------------------------------
      LOOP:  cpu time    9.89: real time    9.90

 eigenvalue-minimisations  :  2496
 total energy-change (2. order) :-0.9901815E+04  (-0.8690925E+04)
 number of electron     874.0000000 magnetization     109.0000000
 augmentation part      874.0000000 magnetization     109.0000000

 DIPCOR: dipole corrections for dipol
 direction  3 min pos   227,
 dipolmoment           0.000000      0.000000      0.000194 electrons x Angstroem
 Tr[quadrupol]    -19065.642833

 energy correction for charged system         0.000000 eV
 dipol+quadrupol energy correction           -0.000000 eV
 added-field ion interaction         -0.000218 eV  (added to PSCEN)


 Free energy of the ion-electron system (eV)
  ---------------------------------------------------
  alpha Z        PSCENC =      2234.45768432
  Ewald energy   TEWEN  =    254105.04587212
  -Hartree energ DENC   =   -318311.54536966
  -exchange      EXHF   =         0.00000000
  -V(xc)+E(xc)   XCENC  =      2199.26573300
  PAW double counting   =     56265.62943820   -55488.14606379
  entropy T*S    EENTRO =        -0.16160862
  eigenvalues    EBANDS =     -5287.25998501
  atomic energy  EATOM  =     70121.53856541
  ---------------------------------------------------
  free energy    TOTEN  =      5838.82426597 eV

  energy without entropy =     5838.98587459  energy(sigma->0) =     5838.90507028


--------------------------------------------------------------------------------------------------------




----------------------------------------- Iteration    1(   3)  ---------------------------------------


     EDDAV:  cpu time   11.11: real time   11.12
       DOS:  cpu time    0.00: real time    0.00
    --------------------------------------------
      LOOP:  cpu time   11.12: real time   11.13

 eigenvalue-minimisations  :  2936
 total energy-change (2. order) :-0.5156039E+04  (-0.4888904E+04)
 number of electron     874.0000000 magnetization     109.0000000
 augmentation part      874.0000000 magnetization     109.0000000

 DIPCOR: dipole corrections for dipol
 direction  3 min pos   227,
 dipolmoment           0.000000      0.000000      0.000194 electrons x Angstroem
 Tr[quadrupol]    -19065.642833

 energy correction for charged system         0.000000 eV
 dipol+quadrupol energy correction           -0.000000 eV
 added-field ion interaction         -0.000218 eV  (added to PSCEN)


 Free energy of the ion-electron system (eV)
  ---------------------------------------------------
  alpha Z        PSCENC =      2234.45768432
  Ewald energy   TEWEN  =    254105.04587212
  -Hartree energ DENC   =   -318311.54536966
  -exchange      EXHF   =         0.00000000
  -V(xc)+E(xc)   XCENC  =      2199.26573300
  PAW double counting   =     56265.62943820   -55488.14606379
  entropy T*S    EENTRO =        -0.26692123
  eigenvalues    EBANDS =    -10443.19319408
  atomic energy  EATOM  =     70121.53856541
  ---------------------------------------------------
  free energy    TOTEN  =       682.78574430 eV

  energy without entropy =      683.05266552  energy(sigma->0) =      682.91920491


--------------------------------------------------------------------------------------------------------




----------------------------------------- Iteration    1(   4)  ---------------------------------------


     EDDAV:  cpu time   12.09: real time   12.10
       DOS:  cpu time    0.00: real time    0.00
    --------------------------------------------
      LOOP:  cpu time   12.09: real time   12.10

 eigenvalue-minimisations  :  3264
 total energy-change (2. order) :-0.1586062E+04  (-0.1460288E+04)
 number of electron     874.0000000 magnetization     109.0000000
 augmentation part      874.0000000 magnetization     109.0000000

 DIPCOR: dipole corrections for dipol
 direction  3 min pos   227,
 dipolmoment           0.000000      0.000000      0.000194 electrons x Angstroem
 Tr[quadrupol]    -19065.642833

 energy correction for charged system         0.000000 eV
 dipol+quadrupol energy correction           -0.000000 eV
 added-field ion interaction         -0.000218 eV  (added to PSCEN)


 Free energy of the ion-electron system (eV)
  ---------------------------------------------------
  alpha Z        PSCENC =      2234.45768432
  Ewald energy   TEWEN  =    254105.04587212
  -Hartree energ DENC   =   -318311.54536966
  -exchange      EXHF   =         0.00000000
  -V(xc)+E(xc)   XCENC  =      2199.26573300
  PAW double counting   =     56265.62943820   -55488.14606379
  entropy T*S    EENTRO =        -0.02793301
  eigenvalues    EBANDS =    -12029.49368557
  atomic energy  EATOM  =     70121.53856541
  ---------------------------------------------------
  free energy    TOTEN  =      -903.27575898 eV

  energy without entropy =     -903.24782597  energy(sigma->0) =     -903.26179248


--------------------------------------------------------------------------------------------------------




----------------------------------------- Iteration    1(   5)  ---------------------------------------


     EDDAV:  cpu time   14.13: real time   14.14
       DOS:  cpu time    0.00: real time    0.00
    CHARGE:  cpu time    1.14: real time    1.14
    MIXING:  cpu time    0.01: real time    0.01
    --------------------------------------------
      LOOP:  cpu time   15.28: real time   15.30

 eigenvalue-minimisations  :  3904
 total energy-change (2. order) :-0.1732743E+03  (-0.1717542E+03)
 number of electron     873.9999992 magnetization      23.4013234
 augmentation part       -1.2691975 magnetization      23.8801418

 DIPCOR: dipole corrections for dipol
 direction  3 min pos   227,
 dipolmoment           0.000000      0.000000      0.000194 electrons x Angstroem
 Tr[quadrupol]    -19065.642833

 energy correction for charged system         0.000000 eV
 dipol+quadrupol energy correction           -0.000000 eV
 added-field ion interaction         -0.000218 eV  (added to PSCEN)


 Broyden mixing:
  rms(total) = 0.15554E+02    rms(broyden)= 0.15552E+02
  rms(prec ) = 0.15937E+02
  weight for this iteration     100.00

 Free energy of the ion-electron system (eV)
  ---------------------------------------------------
  alpha Z        PSCENC =      2234.45768432
  Ewald energy   TEWEN  =    254105.04587212
  -Hartree energ DENC   =   -318311.54536966
  -exchange      EXHF   =         0.00000000
  -V(xc)+E(xc)   XCENC  =      2199.26573300
  PAW double counting   =     56265.62943820   -55488.14606379
  entropy T*S    EENTRO =        -0.02771277
  eigenvalues    EBANDS =    -12202.76821235
  atomic energy  EATOM  =     70121.53856541
  ---------------------------------------------------
  free energy    TOTEN  =     -1076.55006551 eV

  energy without entropy =    -1076.52235274  energy(sigma->0) =    -1076.53620913


--------------------------------------------------------------------------------------------------------




----------------------------------------- Iteration    1(   6)  ---------------------------------------


    POTLOK:  cpu time    0.32: real time    0.32
    SETDIJ:  cpu time    2.58: real time    2.58
    EDDIAG:  cpu time    1.50: real time    1.50
  RMM-DIIS:  cpu time    7.90: real time    7.90
    ORTHCH:  cpu time    0.18: real time    0.18
       DOS:  cpu time    0.00: real time    0.00
    CHARGE:  cpu time    1.13: real time    1.13
    MIXING:  cpu time    0.01: real time    0.01
    --------------------------------------------
      LOOP:  cpu time   13.61: real time   13.63

 eigenvalue-minimisations  :  3216
 total energy-change (2. order) : 0.1936697E+03  (-0.5740962E+02)
 number of electron     873.9999993 magnetization      -6.9501350
 augmentation part       -4.6748467 magnetization      -6.1328536

 DIPCOR: dipole corrections for dipol
 direction  3 min pos   229,
 dipolmoment           0.000000      0.000000     -1.575104 electrons x Angstroem
 Tr[quadrupol]    -19109.431083

 energy correction for charged system         0.000000 eV
 dipol+quadrupol energy correction           -0.071069 eV
 added-field ion interaction        -10.259037 eV  (added to PSCEN)


 Broyden mixing:
  rms(total) = 0.99439E+01    rms(broyden)= 0.99433E+01
  rms(prec ) = 0.10066E+02
  weight for this iteration     100.00

 eigenvalues of (default mixing * dielectric matrix)
  average eigenvalue GAMMA=   1.5294
  1.5294

 Free energy of the ion-electron system (eV)
  ---------------------------------------------------
  alpha Z        PSCENC =      2224.12779595
  Ewald energy   TEWEN  =    254105.04587212
  -Hartree energ DENC   =   -319923.57679441
  -exchange      EXHF   =         0.00000000
  -V(xc)+E(xc)   XCENC  =      2238.19937871
  PAW double counting   =     58362.78068090   -57575.90977658
  entropy T*S    EENTRO =        -0.00557354
  eigenvalues    EBANDS =    -10435.08050237
  atomic energy  EATOM  =     70121.53856541
  ---------------------------------------------------
  free energy    TOTEN  =      -882.88035381 eV

  energy without entropy =     -882.87478027  energy(sigma->0) =     -882.87756704


--------------------------------------------------------------------------------------------------------




----------------------------------------- Iteration    1(   7)  ---------------------------------------


    POTLOK:  cpu time    0.32: real time    0.32
    SETDIJ:  cpu time    2.58: real time    2.58
    EDDIAG:  cpu time    1.50: real time    1.51
  RMM-DIIS:  cpu time    8.19: real time    8.19
    ORTHCH:  cpu time    0.18: real time    0.18
       DOS:  cpu time    0.00: real time    0.00
    CHARGE:  cpu time    1.14: real time    1.14
    MIXING:  cpu time    0.01: real time    0.01
    --------------------------------------------
      LOOP:  cpu time   13.93: real time   13.95

 eigenvalue-minimisations  :  3442
 total energy-change (2. order) :-0.6800356E+02  (-0.1114478E+03)
 number of electron     873.9999999 magnetization      -3.9746169
 augmentation part       33.3384931 magnetization      -0.1769244

 DIPCOR: dipole corrections for dipol
 direction  3 min pos   232,
 dipolmoment           0.000000      0.000000      1.105632 electrons x Angstroem
 Tr[quadrupol]    -19142.014592

 energy correction for charged system         0.000000 eV
 dipol+quadrupol energy correction           -0.035017 eV
 added-field ion interaction         19.864325 eV  (added to PSCEN)


 Broyden mixing:
  rms(total) = 0.12988E+02    rms(broyden)= 0.12985E+02
  rms(prec ) = 0.14604E+02
  weight for this iteration     100.00

 eigenvalues of (default mixing * dielectric matrix)
  average eigenvalue GAMMA=   0.9144
  1.4358  0.3930

 Free energy of the ion-electron system (eV)
  ---------------------------------------------------
  alpha Z        PSCENC =      2254.28720981
  Ewald energy   TEWEN  =    254105.04587212
  -Hartree energ DENC   =   -321065.57649470
  -exchange      EXHF   =         0.00000000
  -V(xc)+E(xc)   XCENC  =      2278.48680679
  PAW double counting   =     61392.78450672   -60589.75375321
  entropy T*S    EENTRO =        -0.13953965
  eigenvalues    EBANDS =     -9447.55708757
  atomic energy  EATOM  =     70121.53856541
  ---------------------------------------------------
  free energy    TOTEN  =      -950.88391427 eV

  energy without entropy =     -950.74437462  energy(sigma->0) =     -950.81414445


--------------------------------------------------------------------------------------------------------




----------------------------------------- Iteration    1(   8)  ---------------------------------------


    POTLOK:  cpu time    0.31: real time    0.31
    SETDIJ:  cpu time    2.58: real time    2.58
    EDDIAG:  cpu time    1.50: real time    1.51
  RMM-DIIS:  cpu time    7.83: real time    7.84
    ORTHCH:  cpu time    0.18: real time    0.18
       DOS:  cpu time    0.00: real time    0.00
    CHARGE:  cpu time    1.16: real time    1.16
    MIXING:  cpu time    0.01: real time    0.01
    --------------------------------------------
      LOOP:  cpu time   13.57: real time   13.59

 eigenvalue-minimisations  :  3263
 total energy-change (2. order) :-0.5984067E+03  (-0.1006488E+03)
 number of electron     874.0000007 magnetization      -4.5670011
 augmentation part       82.7580757 magnetization      -6.0277563

 DIPCOR: dipole corrections for dipol
 direction  3 min pos   230,
 dipolmoment           0.000000      0.000000     -8.349910 electrons x Angstroem
 Tr[quadrupol]    -19133.572211

 energy correction for charged system         0.000000 eV
 dipol+quadrupol energy correction           -1.997226 eV
 added-field ion interaction        -86.262846 eV  (added to PSCEN)


 Broyden mixing:
  rms(total) = 0.31923E+02    rms(broyden)= 0.31921E+02
  rms(prec ) = 0.41068E+02
  weight for this iteration     100.00

 eigenvalues of (default mixing * dielectric matrix)
  average eigenvalue GAMMA=   0.6225
  1.4630  0.3702  0.0343

 Free energy of the ion-electron system (eV)
  ---------------------------------------------------
  alpha Z        PSCENC =      2146.19783138
  Ewald energy   TEWEN  =    254105.04587212
  -Hartree energ DENC   =   -320890.94709813
  -exchange      EXHF   =         0.00000000
  -V(xc)+E(xc)   XCENC  =      2266.88059023
  PAW double counting   =     61377.67949029   -60592.65464533
  entropy T*S    EENTRO =        -0.14645319
  eigenvalues    EBANDS =    -10082.88473355
  atomic energy  EATOM  =     70121.53856541
  ---------------------------------------------------
  free energy    TOTEN  =     -1549.29058076 eV

  energy without entropy =    -1549.14412757  energy(sigma->0) =    -1549.21735417


--------------------------------------------------------------------------------------------------------




----------------------------------------- Iteration    1(   9)  ---------------------------------------


    POTLOK:  cpu time    0.31: real time    0.31
    SETDIJ:  cpu time    2.59: real time    2.59
    EDDIAG:  cpu time    1.50: real time    1.50
  RMM-DIIS:  cpu time    8.86: real time    8.86
    ORTHCH:  cpu time    0.18: real time    0.18
       DOS:  cpu time    0.00: real time    0.00
    CHARGE:  cpu time    1.15: real time    1.15
    MIXING:  cpu time    0.01: real time    0.01
    --------------------------------------------
      LOOP:  cpu time   14.60: real time   14.62

 eigenvalue-minimisations  :  3688
 total energy-change (2. order) :-0.7464040E+03  (-0.1502030E+03)
 number of electron     874.0000010 magnetization      -1.4800534
 augmentation part      110.0518501 magnetization       3.6783124

 DIPCOR: dipole corrections for dipol
 direction  3 min pos   227,
 dipolmoment           0.000000      0.000000    -11.082991 electrons x Angstroem
 Tr[quadrupol]    -19135.455975

 energy correction for charged system         0.000000 eV
 dipol+quadrupol energy correction           -3.518662 eV
 added-field ion interaction         12.437846 eV  (added to PSCEN)


 Broyden mixing:
  rms(total) = 0.43564E+02    rms(broyden)= 0.43563E+02
  rms(prec ) = 0.54839E+02
  weight for this iteration     100.00

 eigenvalues of (default mixing * dielectric matrix)
  average eigenvalue GAMMA=   0.4742
  1.4278  0.3824  0.0433  0.0433

 Free energy of the ion-electron system (eV)
  ---------------------------------------------------
  alpha Z        PSCENC =      2243.37708700
  Ewald energy   TEWEN  =    254105.04587212
  -Hartree energ DENC   =   -320845.28561587
  -exchange      EXHF   =         0.00000000
  -V(xc)+E(xc)   XCENC  =      2268.75258875
  PAW double counting   =     61374.17772322   -60585.61411730
  entropy T*S    EENTRO =        -0.24408147
  eigenvalues    EBANDS =    -10977.44258840
  atomic energy  EATOM  =     70121.53856541
  ---------------------------------------------------
  free energy    TOTEN  =     -2295.69456651 eV

  energy without entropy =    -2295.45048504  energy(sigma->0) =    -2295.57252578


--------------------------------------------------------------------------------------------------------




----------------------------------------- Iteration    1(  10)  ---------------------------------------


    POTLOK:  cpu time    0.32: real time    0.32
    SETDIJ:  cpu time    2.60: real time    2.60
    EDDIAG:  cpu time    1.51: real time    1.51
  RMM-DIIS:  cpu time    8.45: real time    8.45
    ORTHCH:  cpu time    0.18: real time    0.18
       DOS:  cpu time    0.00: real time    0.00
    CHARGE:  cpu time    1.14: real time    1.14
    MIXING:  cpu time    0.01: real time    0.01
    --------------------------------------------
      LOOP:  cpu time   14.20: real time   14.21

 eigenvalue-minimisations  :  3513
 total energy-change (2. order) : 0.1505313E+03  (-0.8584821E+02)
 number of electron     874.0000010 magnetization       1.7998102
 augmentation part      103.6537197 magnetization       1.2291405

 DIPCOR: dipole corrections for dipol
 direction  3 min pos   226,
 dipolmoment           0.000000      0.000000     -9.016492 electrons x Angstroem
 Tr[quadrupol]    -19165.705529

 energy correction for charged system         0.000000 eV
 dipol+quadrupol energy correction           -2.328835 eV
 added-field ion interaction         44.541401 eV  (added to PSCEN)


 Broyden mixing:
  rms(total) = 0.42209E+02    rms(broyden)= 0.42209E+02
  rms(prec ) = 0.54493E+02
  weight for this iteration     100.00

 eigenvalues of (default mixing * dielectric matrix)
  average eigenvalue GAMMA=   0.4012
  1.4001  0.3861  0.0937  0.0937  0.0324

 Free energy of the ion-electron system (eV)
  ---------------------------------------------------
  alpha Z        PSCENC =      2276.67046806
  Ewald energy   TEWEN  =    254105.04587212
  -Hartree energ DENC   =   -321611.96329505
  -exchange      EXHF   =         0.00000000
  -V(xc)+E(xc)   XCENC  =      2267.95857361
  PAW double counting   =     61393.28258633   -60604.09846947
  entropy T*S    EENTRO =        -0.06473012
  eigenvalues    EBANDS =    -10093.53287654
  atomic energy  EATOM  =     70121.53856541
  ---------------------------------------------------
  free energy    TOTEN  =     -2145.16330564 eV

  energy without entropy =    -2145.09857552  energy(sigma->0) =    -2145.13094058


--------------------------------------------------------------------------------------------------------




----------------------------------------- Iteration    1(  11)  ---------------------------------------


    POTLOK:  cpu time    0.32: real time    0.32
    SETDIJ:  cpu time    2.61: real time    2.61
    EDDIAG:  cpu time    1.50: real time    1.50
  RMM-DIIS:  cpu time    7.33: real time    7.33
    ORTHCH:  cpu time    0.18: real time    0.18
       DOS:  cpu time    0.00: real time    0.00
    CHARGE:  cpu time    1.15: real time    1.15
    MIXING:  cpu time    0.01: real time    0.01
    --------------------------------------------
      LOOP:  cpu time   13.09: real time   13.11

 eigenvalue-minimisations  :  3069
 total energy-change (2. order) : 0.7888772E+03  (-0.1678951E+02)
 number of electron     874.0000008 magnetization       3.9681064
 augmentation part       92.5814323 magnetization       1.5985191

 DIPCOR: dipole corrections for dipol
 direction  3 min pos   224,
 dipolmoment           0.000000      0.000000     -5.216214 electrons x Angstroem
 Tr[quadrupol]    -19163.537329

 energy correction for charged system         0.000000 eV
 dipol+quadrupol energy correction           -0.779425 eV
 added-field ion interaction         65.596414 eV  (added to PSCEN)


 Broyden mixing:
  rms(total) = 0.34045E+02    rms(broyden)= 0.34045E+02
  rms(prec ) = 0.46046E+02
  weight for this iteration     100.00

 eigenvalues of (default mixing * dielectric matrix)
  average eigenvalue GAMMA=   0.3630
  1.3347  0.3564  0.1729  0.1729  0.0943  0.0468

 Free energy of the ion-electron system (eV)
  ---------------------------------------------------
  alpha Z        PSCENC =      2299.27489131
  Ewald energy   TEWEN  =    254105.04587212
  -Hartree energ DENC   =   -321510.28573808
  -exchange      EXHF   =         0.00000000
  -V(xc)+E(xc)   XCENC  =      2265.78465075
  PAW double counting   =     61318.74087379   -60530.49281623
  entropy T*S    EENTRO =        -0.16815816
  eigenvalues    EBANDS =     -9425.72427545
  atomic energy  EATOM  =     70121.53856541
  ---------------------------------------------------
  free energy    TOTEN  =     -1356.28613453 eV

  energy without entropy =    -1356.11797637  energy(sigma->0) =    -1356.20205545


--------------------------------------------------------------------------------------------------------




----------------------------------------- Iteration    1(  12)  ---------------------------------------


    POTLOK:  cpu time    0.31: real time    0.31
    SETDIJ:  cpu time    2.63: real time    2.63
    EDDIAG:  cpu time    1.50: real time    1.50
  RMM-DIIS:  cpu time    7.86: real time    7.86
    ORTHCH:  cpu time    0.18: real time    0.18
       DOS:  cpu time    0.00: real time    0.00
    CHARGE:  cpu time    1.15: real time    1.15
    MIXING:  cpu time    0.01: real time    0.01
    --------------------------------------------
      LOOP:  cpu time   13.63: real time   13.65

 eigenvalue-minimisations  :  3240
 total energy-change (2. order) : 0.4623004E+03  (-0.1481156E+02)
 number of electron     873.9999995 magnetization       5.4423798
 augmentation part        6.7235469 magnetization       4.2749792

 DIPCOR: dipole corrections for dipol
 direction  3 min pos   224,
 dipolmoment           0.000000      0.000000     -1.249165 electrons x Angstroem
 Tr[quadrupol]    -19133.547158

 energy correction for charged system         0.000000 eV
 dipol+quadrupol energy correction           -0.044700 eV
 added-field ion interaction         15.708857 eV  (added to PSCEN)


 Broyden mixing:
  rms(total) = 0.12988E+02    rms(broyden)= 0.12984E+02
  rms(prec ) = 0.14682E+02
  weight for this iteration     100.00

 eigenvalues of (default mixing * dielectric matrix)
  average eigenvalue GAMMA=   0.3345
  1.3365  0.3726  0.1942  0.1942  0.0993  0.0993  0.0455

 Free energy of the ion-electron system (eV)
  ---------------------------------------------------
  alpha Z        PSCENC =      2250.12205951
  Ewald energy   TEWEN  =    254105.04587212
  -Hartree energ DENC   =   -320719.03010713
  -exchange      EXHF   =         0.00000000
  -V(xc)+E(xc)   XCENC  =      2262.25313614
  PAW double counting   =     61153.66118888   -60368.13818460
  entropy T*S    EENTRO =        -0.16415372
  eigenvalues    EBANDS =     -9699.27412440
  atomic energy  EATOM  =     70121.53856541
  ---------------------------------------------------
  free energy    TOTEN  =      -893.98574780 eV

  energy without entropy =     -893.82159408  energy(sigma->0) =     -893.90367094


--------------------------------------------------------------------------------------------------------




----------------------------------------- Iteration    1(  13)  ---------------------------------------


    POTLOK:  cpu time    0.31: real time    0.31
    SETDIJ:  cpu time    2.63: real time    2.63
    EDDIAG:  cpu time    1.51: real time    1.51
  RMM-DIIS:  cpu time    7.75: real time    7.78
    ORTHCH:  cpu time    0.18: real time    0.18
       DOS:  cpu time    0.00: real time    0.00
    CHARGE:  cpu time    1.16: real time    1.16
    MIXING:  cpu time    0.01: real time    0.01
    --------------------------------------------
      LOOP:  cpu time   13.55: real time   13.60

 eigenvalue-minimisations  :  3265
 total energy-change (2. order) : 0.1273889E+02  (-0.7898218E+01)
 number of electron     873.9999993 magnetization       7.3858609
 augmentation part       -9.9785011 magnetization       7.4292195

 DIPCOR: dipole corrections for dipol
 direction  3 min pos   223,
 dipolmoment           0.000000      0.000000      0.351173 electrons x Angstroem
 Tr[quadrupol]    -19135.558599

 energy correction for charged system         0.000000 eV
 dipol+quadrupol energy correction           -0.003533 eV
 added-field ion interaction         -5.756854 eV  (added to PSCEN)


 Broyden mixing:
  rms(total) = 0.72548E+01    rms(broyden)= 0.72513E+01
  rms(prec ) = 0.74994E+01
  weight for this iteration     100.00

 eigenvalues of (default mixing * dielectric matrix)
  average eigenvalue GAMMA=   0.3436
  1.4147  0.4901  0.1915  0.1915  0.1438  0.1438  0.1275  0.0457

 Free energy of the ion-electron system (eV)
  ---------------------------------------------------
  alpha Z        PSCENC =      2228.69751590
  Ewald energy   TEWEN  =    254105.04587212
  -Hartree energ DENC   =   -320800.39952476
  -exchange      EXHF   =         0.00000000
  -V(xc)+E(xc)   XCENC  =      2261.04705338
  PAW double counting   =     61258.88316140   -60473.25319039
  entropy T*S    EENTRO =        -0.04189783
  eigenvalues    EBANDS =     -9582.76441499
  atomic energy  EATOM  =     70121.53856541
  ---------------------------------------------------
  free energy    TOTEN  =      -881.24685975 eV

  energy without entropy =     -881.20496192  energy(sigma->0) =     -881.22591084


--------------------------------------------------------------------------------------------------------




----------------------------------------- Iteration    1(  14)  ---------------------------------------


    POTLOK:  cpu time    0.32: real time    0.32
    SETDIJ:  cpu time    2.63: real time    2.63
    EDDIAG:  cpu time    1.50: real time    1.50
  RMM-DIIS:  cpu time    7.62: real time    7.62
    ORTHCH:  cpu time    0.18: real time    0.18
       DOS:  cpu time    0.00: real time    0.00
    CHARGE:  cpu time    1.13: real time    1.13
    MIXING:  cpu time    0.01: real time    0.01
    --------------------------------------------
      LOOP:  cpu time   13.38: real time   13.39

 eigenvalue-minimisations  :  3208
 total energy-change (2. order) : 0.4640612E+01  (-0.2880322E+01)
 number of electron     873.9999992 magnetization       7.7811838
 augmentation part      -12.9168126 magnetization       8.0576756

 DIPCOR: dipole corrections for dipol
 direction  3 min pos   228,
 dipolmoment           0.000000      0.000000      0.406875 electrons x Angstroem
 Tr[quadrupol]    -19147.038384

 energy correction for charged system         0.000000 eV
 dipol+quadrupol energy correction           -0.004742 eV
 added-field ion interaction          1.096732 eV  (added to PSCEN)


 Broyden mixing:
  rms(total) = 0.64652E+01    rms(broyden)= 0.64641E+01
  rms(prec ) = 0.65641E+01
  weight for this iteration     100.00

 eigenvalues of (default mixing * dielectric matrix)
  average eigenvalue GAMMA=   0.4308
  1.7630  0.8698  0.1799  0.1799  0.2974  0.2974  0.1223  0.1223  0.0457

 Free energy of the ion-electron system (eV)
  ---------------------------------------------------
  alpha Z        PSCENC =      2235.54989223
  Ewald energy   TEWEN  =    254105.04587212
  -Hartree energ DENC   =   -321087.73083272
  -exchange      EXHF   =         0.00000000
  -V(xc)+E(xc)   XCENC  =      2262.26483221
  PAW double counting   =     61921.06728750   -61131.38841455
  entropy T*S    EENTRO =        -0.00022870
  eigenvalues    EBANDS =     -9302.95322167
  atomic energy  EATOM  =     70121.53856541
  ---------------------------------------------------
  free energy    TOTEN  =      -876.60624816 eV

  energy without entropy =     -876.60601946  energy(sigma->0) =     -876.60613381


--------------------------------------------------------------------------------------------------------




----------------------------------------- Iteration    1(  15)  ---------------------------------------


    POTLOK:  cpu time    0.32: real time    0.32
    SETDIJ:  cpu time    2.61: real time    2.61
    EDDIAG:  cpu time    1.50: real time    1.50
  RMM-DIIS:  cpu time    7.62: real time    7.63
    ORTHCH:  cpu time    0.18: real time    0.18
       DOS:  cpu time    0.00: real time    0.00
    CHARGE:  cpu time    1.13: real time    1.13
    MIXING:  cpu time    0.01: real time    0.01
    --------------------------------------------
      LOOP:  cpu time   13.36: real time   13.38

 eigenvalue-minimisations  :  3254
 total energy-change (2. order) :-0.6010702E-01  (-0.2558567E+01)
 number of electron     873.9999992 magnetization       8.2880549
 augmentation part      -12.5347950 magnetization       8.2259378

 DIPCOR: dipole corrections for dipol
 direction  3 min pos   229,
 dipolmoment           0.000000      0.000000      1.655936 electrons x Angstroem
 Tr[quadrupol]    -19156.873087

 energy correction for charged system         0.000000 eV
 dipol+quadrupol energy correction           -0.078551 eV
 added-field ion interaction         10.785515 eV  (added to PSCEN)


 Broyden mixing:
  rms(total) = 0.69615E+01    rms(broyden)= 0.69606E+01
  rms(prec ) = 0.72081E+01
  weight for this iteration     100.00

 eigenvalues of (default mixing * dielectric matrix)
  average eigenvalue GAMMA=   0.4517
  2.0461  0.9722  0.1801  0.1801  0.3080  0.3080  0.2332  0.1220  0.1220  0.0457

 Free energy of the ion-electron system (eV)
  ---------------------------------------------------
  alpha Z        PSCENC =      2245.16486647
  Ewald energy   TEWEN  =    254105.04587212
  -Hartree energ DENC   =   -321336.06286795
  -exchange      EXHF   =         0.00000000
  -V(xc)+E(xc)   XCENC  =      2264.15674697
  PAW double counting   =     63101.72208031   -62303.42952858
  entropy T*S    EENTRO =        -0.02407858
  eigenvalues    EBANDS =     -9074.77801135
  atomic energy  EATOM  =     70121.53856541
  ---------------------------------------------------
  free energy    TOTEN  =      -876.66635518 eV

  energy without entropy =     -876.64227659  energy(sigma->0) =     -876.65431589


--------------------------------------------------------------------------------------------------------




----------------------------------------- Iteration    1(  16)  ---------------------------------------


    POTLOK:  cpu time    0.32: real time    0.32
    SETDIJ:  cpu time    2.60: real time    2.60
    EDDIAG:  cpu time    1.54: real time    1.54
  RMM-DIIS:  cpu time    7.59: real time    7.59
    ORTHCH:  cpu time    0.18: real time    0.18
       DOS:  cpu time    0.00: real time    0.00
    CHARGE:  cpu time    1.13: real time    1.13
    MIXING:  cpu time    0.01: real time    0.01
    --------------------------------------------
      LOOP:  cpu time   13.37: real time   13.38

 eigenvalue-minimisations  :  3243
 total energy-change (2. order) :-0.3165448E+01  (-0.1790574E+01)
 number of electron     873.9999992 magnetization       8.6499690
 augmentation part      -11.0681435 magnetization       8.7656419

 DIPCOR: dipole corrections for dipol
 direction  3 min pos   229,
 dipolmoment           0.000000      0.000000      1.473094 electrons x Angstroem
 Tr[quadrupol]    -19163.855401

 energy correction for charged system         0.000000 eV
 dipol+quadrupol energy correction           -0.062162 eV
 added-field ion interaction          9.594625 eV  (added to PSCEN)


 Broyden mixing:
  rms(total) = 0.74137E+01    rms(broyden)= 0.74123E+01
  rms(prec ) = 0.78382E+01
  weight for this iteration     100.00

 eigenvalues of (default mixing * dielectric matrix)
  average eigenvalue GAMMA=   0.4676
  2.3390  1.0479  0.1804  0.1804  0.3299  0.3299  0.2219  0.2219  0.0457  0.1233
  0.1233

 Free energy of the ion-electron system (eV)
  ---------------------------------------------------
  alpha Z        PSCENC =      2243.99036514
  Ewald energy   TEWEN  =    254105.04587212
  -Hartree energ DENC   =   -321526.38808325
  -exchange      EXHF   =         0.00000000
  -V(xc)+E(xc)   XCENC  =      2266.04469523
  PAW double counting   =     63653.15474590   -62851.26236099
  entropy T*S    EENTRO =        -0.04329171
  eigenvalues    EBANDS =     -8891.91231150
  atomic energy  EATOM  =     70121.53856541
  ---------------------------------------------------
  free energy    TOTEN  =      -879.83180366 eV

  energy without entropy =     -879.78851194  energy(sigma->0) =     -879.81015780


--------------------------------------------------------------------------------------------------------




----------------------------------------- Iteration    1(  17)  ---------------------------------------


    POTLOK:  cpu time    0.32: real time    0.32
    SETDIJ:  cpu time    2.57: real time    2.57
    EDDIAG:  cpu time    1.49: real time    1.50
[...]
      9.84031      3.88202      0.00000        -1.138264      0.006071     -0.455204
      1.60531      3.88202      0.00000         1.140707      0.011178     -0.460692
      4.35031      7.76403      0.00000        -1.144370      0.008533     -0.457135
      4.35031      0.00000      0.00000        -1.141628     -0.019696     -0.460073
      7.09531      0.00000      0.00000         1.137800     -0.014662     -0.455110
      4.35031      3.88202      0.00000        -1.140927      0.011033     -0.459458
      9.84031      7.76403      0.00000        -1.140783      0.010207     -0.458561
      1.60531      7.76403      0.00000         1.143177      0.008636     -0.457166
      4.35031      9.70504      1.94101        -0.347627      0.036418     -0.291095
      7.09531      9.70504      1.94101         0.337508      0.018629     -0.353267
      4.35031      1.94101      1.94101        -0.391105      0.016827     -0.275245
      1.60531      1.94101      1.94101         0.393067      0.014726     -0.278119
      9.84031      1.94101      1.94101        -0.344235      0.030404     -0.364915
      9.84031      9.70504      1.94101        -0.336259      0.016685     -0.355142
      7.09531      1.94101      1.94101         0.344588      0.032131     -0.365641
      1.60531      9.70504      1.94101         0.348429      0.039503     -0.289619
      4.35031      5.82303      1.94101        -0.357239     -0.075622     -0.292595
      1.60531      5.82303      1.94101         0.358039     -0.076286     -0.291890
      9.84031      5.82303      1.94101        -0.347953     -0.016348     -0.349274
      7.09531      5.82303      1.94101         0.347069     -0.020365     -0.347670
      7.09323      0.00808      3.86962        -0.004588      0.000926     -0.007518
      4.34623      7.75603      3.86864         0.003006      0.002893      0.002532
      7.10476      7.76260      3.86782         0.003611     -0.001125     -0.000037
      9.83129      7.76272      3.86874        -0.003603      0.002201     -0.004534
      1.61209      0.02062      3.88676        -0.000450      0.001643     -0.010285
      9.84361      0.00723      3.86946         0.001528     -0.000962     -0.009912
      4.34355      0.01946      3.88592         0.004218      0.004406     -0.006703
      1.60951      7.75612      3.86811        -0.000997      0.005220      0.000267
      4.34720      3.86210      3.89768         0.004679     -0.007401     -0.007800
      9.84500      3.88677      3.87937        -0.001710     -0.002959     -0.000514
      7.09111      3.88587      3.88048        -0.001738     -0.001303     -0.002995
      1.60869      3.86105      3.89729        -0.001463     -0.005740     -0.005897
      7.08667      1.95067      5.79804        -0.002792     -0.006141     -0.004140
      7.08963      9.73489      5.78427         0.005513     -0.008347      0.013294
      4.33942      9.70657      5.79291        -0.001430      0.019586     -0.006745
      9.85065      5.80598      5.80994         0.000094      0.010523     -0.002318
      1.61721      9.70616      5.79222         0.004868      0.023302     -0.000099
      7.08579      5.80503      5.81041         0.001284      0.005802      0.003403
      4.34648      1.93799      5.90081         0.006576     -0.002309      0.000572
      9.85051      1.94905      5.79467         0.002596     -0.007587      0.002783
      4.33800      5.80550      5.81610         0.002570     -0.024994     -0.015127
      1.61908      5.80707      5.81433        -0.000026     -0.020775     -0.017856
      1.61204      1.93749      5.90426        -0.007547     -0.008351     -0.007402
      9.84735      9.73572      5.78564        -0.006221     -0.009431      0.014544
      7.10511      3.85281      7.74829        -0.003102     -0.005321      0.009040
      9.84952      0.03996      7.69403        -0.008415     -0.018982     -0.007158
      1.53598      7.75558      7.64853         0.005352      0.008564     -0.025730
      4.33095      3.96640      7.84535        -0.000414     -0.011149     -0.007006
      7.08603      0.03716      7.69321         0.010221     -0.013142     -0.007470
      7.14648      7.80183      7.66254         0.007520      0.014677      0.022260
      4.35773     11.52458      7.79884        -0.010070     -0.000380     -0.022565
      9.79213      7.80064      7.66386        -0.005119      0.022592      0.023430
      4.42415      7.75628      7.64737        -0.008966      0.006408     -0.021249
      9.82899      3.85275      7.74110         0.009935      0.001178      0.019597
      1.62862      3.97204      7.84157        -0.012186     -0.017622      0.001367
      1.59907     11.52124      7.80256         0.005564     -0.002786     -0.026090
      7.00756      9.79128      9.60337         0.010253      0.003836      0.010684
      1.66639      9.38766      9.91591         0.022352      0.007965     -0.015025
      4.29397      9.39359      9.90988        -0.026917     -0.005298     -0.007453
      4.39230      1.80584      9.68599         0.001915     -0.005588     -0.012228
      1.55914      1.81293      9.67695         0.003047     -0.018492     -0.008481
      9.93511      9.79223      9.60257        -0.017841      0.007081      0.010126
      9.87758      1.83711      9.70375         0.001388     -0.002997      0.014032
      7.05505      1.83378      9.70309         0.004592     -0.004121      0.022067
      4.28786      6.21240      9.96801        -0.018389      0.026500     -0.025150
      9.90273      5.89388      9.61667        -0.004058      0.016336      0.023655
      7.03760      5.89736      9.61754         0.015736      0.005977      0.016433
      1.67648      6.21416      9.97225         0.015092      0.018611     -0.037797
      2.98261      7.80228     10.16058        -0.003132     -0.026436     -0.031280
 -----------------------------------------------------------------------------------
    total drift:                                0.003658     -0.021470     -0.107336


--------------------------------------------------------------------------------------------------------



  FREE ENERGIE OF THE ION-ELECTRON SYSTEM (eV)
  ---------------------------------------------------
  free  energy   TOTEN  =      -890.30884084 eV

  energy  without entropy=     -890.30884084  energy(sigma->0) =     -890.30884084
 
 d Force = 0.1784916E-02[ 0.974E-03, 0.260E-02]  d Energy = 0.2514891E-02-0.730E-03
 d Force = 0.3044127E+01[ 0.304E+01, 0.305E+01]  d Ewald  = 0.3044128E+01-0.117E-05


--------------------------------------------------------------------------------------------------------


    POTLOK:  cpu time    2.89: real time    2.89


--------------------------------------------------------------------------------------------------------


 stress matrix after NEB project (eV)
    -65.22120     -0.02451     -0.08912
     -0.02466   -121.23907      0.08512
     -0.08834      0.08482    -67.42474
  FORCES: max atom, RMS     0.044753    0.016476
  FORCE total and by dimension    0.172016    0.037797
  Stress total and by dimension  153.293321  121.239066
 Conjugate gradient step on ions:
 trial-energy change:   -0.002515  1 .order   -0.001785   -0.002596   -0.000974
  (g-gl).g = 0.132E-02      g.g   = 0.959E-03  gl.gl    = 0.365E-02
 g(Force)  = 0.959E-03   g(Stress)= 0.000E+00 ortho     =-0.159E-03
 gamma     =   0.36314
 trial     =   2.88246
 opt step  =   3.30488  (harmonic =   4.61234) maximal distance =0.00216907
 next E    =  -890.308914   (d E  =  -0.00259)


--------------------------------------------------------------------------------------------------------


  
 reached required accuracy - stopping structural energy minimisation
 writing wavefunctions
     LOOP+:  cpu time  115.41: real time  118.38
    4ORBIT:  cpu time    0.00: real time    0.00
 


 total charge     
 
# of ion     s       p       d       f       tot
------------------------------------------------
  1        1.992   5.764   0.873   0.773   9.401
  2        1.992   5.764   0.872   0.774   9.402
  3        1.992   5.764   0.872   0.773   9.401
  4        1.992   5.764   0.872   0.774   9.402
  5        1.992   5.764   0.872   0.774   9.402
  6        1.991   5.764   0.872   0.774   9.402
  7        1.993   5.819   0.903   0.722   9.437
  8        1.994   5.819   0.905   0.723   9.440
  9        1.994   5.819   0.903   0.722   9.437
 10        1.993   5.818   0.900   0.721   9.433
 11        1.993   5.818   0.900   0.721   9.433
 12        1.994   5.819   0.905   0.722   9.440
 13        1.995   5.820   0.913   0.725   9.453
 14        1.995   5.821   0.917   0.726   9.458
 15        1.993   5.818   0.901   0.722   9.434
 16        1.995   5.820   0.912   0.725   9.451
 17        1.994   5.820   0.911   0.725   9.449
 18        1.995   5.820   0.914   0.726   9.455
 19        1.997   5.822   0.930   0.734   9.482
 20        1.997   5.822   0.930   0.734   9.483
 21        1.994   5.819   0.905   0.724   9.442
 22        1.995   5.820   0.919   0.727   9.462
 23        1.995   5.820   0.920   0.727   9.463
 24        1.994   5.819   0.906   0.724   9.441
 25        1.993   5.819   0.917   0.724   9.452
 26        1.994   5.819   0.917   0.724   9.454
 27        1.992   5.811   0.899   0.729   9.430
 28        1.992   5.813   0.906   0.728   9.439
 29        1.990   5.812   0.892   0.725   9.418
 30        1.994   5.820   0.916   0.725   9.455
 31        2.004   5.772   1.042   0.787   9.605
 32        2.004   5.772   1.041   0.788   9.605
 33        2.004   5.792   1.049   0.801   9.648
 34        2.005   5.792   1.051   0.802   9.649
 35        2.023   5.745   0.702   1.159   9.629
 36        2.023   5.744   0.700   1.160   9.627
 37        1.600   3.384   0.000   0.000   4.985
 38        1.600   3.384   0.000   0.000   4.984
 39        1.600   3.384   0.000   0.000   4.985
 40        1.600   3.384   0.000   0.000   4.985
 41        1.600   3.384   0.000   0.000   4.985
 42        1.600   3.384   0.000   0.000   4.984
 43        1.600   3.384   0.000   0.000   4.985
 44        1.600   3.384   0.000   0.000   4.984
 45        1.600   3.384   0.000   0.000   4.985
 46        1.600   3.384   0.000   0.000   4.984
 47        1.600   3.384   0.000   0.000   4.984
 48        1.600   3.384   0.000   0.000   4.985
 49        1.597   3.458   0.000   0.000   5.054
 50        1.597   3.458   0.000   0.000   5.055
 51        1.596   3.454   0.000   0.000   5.050
 52        1.596   3.454   0.000   0.000   5.050
 53        1.597   3.456   0.000   0.000   5.052
 54        1.597   3.458   0.000   0.000   5.055
 55        1.597   3.456   0.000   0.000   5.052
 56        1.597   3.458   0.000   0.000   5.054
 57        1.597   3.456   0.000   0.000   5.053
 58        1.596   3.456   0.000   0.000   5.053
 59        1.597   3.457   0.000   0.000   5.053
 60        1.597   3.456   0.000   0.000   5.053
 61        1.598   3.465   0.000   0.000   5.063
 62        1.598   3.466   0.000   0.000   5.064
 63        1.599   3.466   0.000   0.000   5.065
 64        1.599   3.466   0.000   0.000   5.065
 65        1.598   3.465   0.000   0.000   5.063
 66        1.598   3.465   0.000   0.000   5.063
 67        1.598   3.464   0.000   0.000   5.063
 68        1.598   3.466   0.000   0.000   5.064
 69        1.598   3.462   0.000   0.000   5.060
 70        1.598   3.463   0.000   0.000   5.061
 71        1.598   3.463   0.000   0.000   5.060
 72        1.598   3.462   0.000   0.000   5.060
 73        1.597   3.456   0.000   0.000   5.054
 74        1.598   3.461   0.000   0.000   5.059
 75        1.597   3.460   0.000   0.000   5.057
 76        1.597   3.459   0.000   0.000   5.056
 77        1.597   3.460   0.000   0.000   5.057
 78        1.597   3.459   0.000   0.000   5.056
 79        1.597   3.450   0.000   0.000   5.047
 80        1.597   3.456   0.000   0.000   5.053
 81        1.597   3.459   0.000   0.000   5.056
 82        1.597   3.459   0.000   0.000   5.056
 83        1.597   3.449   0.000   0.000   5.046
 84        1.598   3.461   0.000   0.000   5.059
 85        1.597   3.478   0.000   0.000   5.075
 86        1.600   3.481   0.000   0.000   5.080
 87        1.599   3.470   0.000   0.000   5.069
 88        1.596   3.466   0.000   0.000   5.062
 89        1.600   3.481   0.000   0.000   5.080
 90        1.600   3.481   0.000   0.000   5.081
 91        1.598   3.468   0.000   0.000   5.066
 92        1.600   3.481   0.000   0.000   5.081
 93        1.599   3.470   0.000   0.000   5.069
 94        1.597   3.477   0.000   0.000   5.074
 95        1.596   3.466   0.000   0.000   5.061
 96        1.598   3.467   0.000   0.000   5.065
 97        1.602   3.425   0.000   0.000   5.027
 98        1.596   3.390   0.000   0.000   4.986
 99        1.596   3.391   0.000   0.000   4.987
100        1.603   3.425   0.000   0.000   5.027
101        1.603   3.426   0.000   0.000   5.029
102        1.602   3.425   0.000   0.000   5.027
103        1.600   3.432   0.000   0.000   5.032
104        1.600   3.431   0.000   0.000   5.032
105        1.595   3.391   0.000   0.000   4.987
106        1.601   3.433   0.000   0.000   5.035
107        1.601   3.435   0.000   0.000   5.036
108        1.595   3.391   0.000   0.000   4.986
109        0.660   0.565   8.043   0.000   9.268
------------------------------------------------
tot      187.607 457.242  40.703  27.543 713.095

 


 magnetization (x)
 
# of ion     s       p       d       f       tot
------------------------------------------------
  1        0.000  -0.000  -0.000  -0.000  -0.000
  2        0.000   0.000   0.000  -0.000   0.000
  3        0.000  -0.000  -0.000  -0.000  -0.000
  4        0.000   0.000   0.000  -0.000   0.000
  5       -0.000   0.000   0.000   0.000   0.000
  6        0.000  -0.000  -0.000   0.000  -0.000
  7       -0.000  -0.000   0.000  -0.000  -0.000
  8       -0.000   0.000  -0.000  -0.000  -0.000
  9        0.000  -0.000   0.000  -0.000  -0.000
 10        0.000  -0.000   0.000   0.000   0.000
 11        0.000  -0.000   0.000   0.000   0.000
 12       -0.000  -0.000  -0.000   0.000  -0.000
 13        0.000  -0.000   0.000   0.000   0.000
 14       -0.000  -0.000  -0.000   0.000  -0.000
 15        0.000  -0.000   0.000   0.000   0.000
 16        0.000  -0.000  -0.000   0.000   0.000
 17        0.000  -0.000   0.000   0.000   0.000
 18       -0.000  -0.000   0.000  -0.000  -0.000
 19       -0.000  -0.000   0.000   0.000   0.000
 20       -0.000  -0.000  -0.000  -0.000  -0.000
 21       -0.000  -0.000   0.000   0.002   0.003
 22       -0.000  -0.000  -0.000   0.000   0.000
 23       -0.000  -0.000  -0.000   0.000   0.000
 24       -0.000  -0.000  -0.000   0.000   0.000
 25       -0.000  -0.000   0.000   0.002   0.002
 26       -0.000  -0.000  -0.000   0.000   0.000
 27       -0.000  -0.000   0.000   0.004   0.004
 28        0.000  -0.000   0.000   0.000   0.000
 29       -0.000  -0.000   0.000   0.007   0.007
 30       -0.000  -0.000   0.000   0.000   0.000
 31       -0.000  -0.000  -0.000   0.001   0.001
 32       -0.000  -0.000   0.000   0.007   0.007
 33       -0.000  -0.000  -0.000   0.001   0.000
 34        0.000  -0.000  -0.000   0.001   0.001
 35       -0.004  -0.006   0.014   0.975   0.979
 36       -0.004  -0.006   0.013   0.976   0.980
 37       -0.000  -0.000   0.000   0.000  -0.000
 38        0.000   0.000   0.000   0.000   0.000
 39       -0.000   0.000   0.000   0.000   0.000
 40        0.000  -0.000   0.000   0.000  -0.000
 41       -0.000  -0.000   0.000   0.000  -0.000
 42       -0.000  -0.000   0.000   0.000  -0.000
 43       -0.000  -0.000   0.000   0.000  -0.000
 44        0.000   0.000   0.000   0.000   0.000
 45        0.000   0.000   0.000   0.000   0.000
 46       -0.000  -0.000   0.000   0.000  -0.000
 47       -0.000   0.000   0.000   0.000   0.000
 48       -0.000  -0.000   0.000   0.000  -0.000
 49        0.000   0.000   0.000   0.000   0.000
 50        0.000  -0.000   0.000   0.000  -0.000
 51       -0.000  -0.000   0.000   0.000  -0.000
 52       -0.000  -0.000   0.000   0.000  -0.000
 53       -0.000  -0.000   0.000   0.000  -0.000
 54       -0.000  -0.000   0.000   0.000  -0.000
 55       -0.000  -0.000   0.000   0.000  -0.000
 56        0.000   0.000   0.000   0.000   0.000
 57       -0.000  -0.000   0.000   0.000  -0.000
 58       -0.000  -0.000   0.000   0.000  -0.000
 59       -0.000  -0.000   0.000   0.000  -0.000
 60       -0.000  -0.000   0.000   0.000  -0.000
 61        0.000  -0.000   0.000   0.000  -0.000
 62       -0.000  -0.000   0.000   0.000  -0.000
 63       -0.000  -0.000   0.000   0.000  -0.000
 64       -0.000  -0.000   0.000   0.000  -0.000
 65       -0.000  -0.000   0.000   0.000  -0.000
 66        0.000  -0.000   0.000   0.000  -0.000
 67       -0.000  -0.000   0.000   0.000  -0.000
 68       -0.000  -0.000   0.000   0.000  -0.000
 69       -0.000  -0.000   0.000   0.000  -0.000
 70       -0.000  -0.000   0.000   0.000  -0.000
 71       -0.000  -0.000   0.000   0.000  -0.000
 72       -0.000  -0.000   0.000   0.000  -0.000
 73       -0.000  -0.000   0.000   0.000  -0.000
 74       -0.000  -0.000   0.000   0.000  -0.000
 75       -0.000  -0.000   0.000   0.000  -0.000
 76       -0.000  -0.000   0.000   0.000  -0.000
 77       -0.000  -0.000   0.000   0.000  -0.000
 78       -0.000  -0.000   0.000   0.000  -0.000
 79       -0.000  -0.000   0.000   0.000  -0.000
 80       -0.000  -0.000   0.000   0.000  -0.000
 81       -0.000  -0.000   0.000   0.000  -0.000
 82       -0.000  -0.000   0.000   0.000  -0.000
 83       -0.000  -0.000   0.000   0.000  -0.000
 84       -0.000  -0.000   0.000   0.000  -0.000
 85       -0.000  -0.002   0.000   0.000  -0.003
 86       -0.000  -0.000   0.000   0.000  -0.000
 87       -0.000  -0.000   0.000   0.000  -0.000
 88       -0.000  -0.005   0.000   0.000  -0.005
 89       -0.000  -0.000   0.000   0.000  -0.000
 90       -0.000  -0.000   0.000   0.000  -0.000
 91       -0.000  -0.000   0.000   0.000  -0.000
 92       -0.000  -0.000   0.000   0.000  -0.000
 93       -0.000  -0.000   0.000   0.000  -0.000
 94       -0.000  -0.003   0.000   0.000  -0.003
 95       -0.000  -0.007   0.000   0.000  -0.008
 96       -0.000  -0.000   0.000   0.000  -0.000
 97       -0.000  -0.001   0.000   0.000  -0.001
 98        0.000  -0.000   0.000   0.000  -0.000
 99       -0.000  -0.000   0.000   0.000  -0.000
100       -0.000  -0.005   0.000   0.000  -0.005
101       -0.000  -0.004   0.000   0.000  -0.005
102       -0.000  -0.000   0.000   0.000  -0.000
103       -0.000  -0.004   0.000   0.000  -0.004
104       -0.000  -0.005   0.000   0.000  -0.005
105       -0.000  -0.001   0.000   0.000  -0.001
106       -0.000  -0.004   0.000   0.000  -0.004
107       -0.000  -0.004   0.000   0.000  -0.004
108       -0.000  -0.001   0.000   0.000  -0.001
109       -0.000  -0.000   0.000   0.000  -0.000
------------------------------------------------
tot       -0.010  -0.062   0.028   1.978   1.934

 

 total amount of memory used by VASP on root node   108427. kBytes
========================================================================

   base      :      30000. kBytes
   nonlr-proj:      13748. kBytes
   fftplans  :      26017. kBytes
   grid      :      26227. kBytes
   one-center:        933. kBytes
   wavefun   :      11502. kBytes
 
  
  
 General timing and accounting informations for this job:
 ========================================================
  
                  Total CPU time used (sec):     5701.135
                            User time (sec):     5644.337
                          System time (sec):       56.798
                         Elapsed time (sec):     5720.529
  
                   Maximum memory used (kb):      325152.
                   Average memory used (kb):           0.
  
                          Minor page faults:       814009
                          Major page faults:            1
                 Voluntary context switches:       353038
