       N       E                     dE             d eps       ncg     rms          rms(c)
DAV:   1    -0.878531619941E+03   -0.87853E+03   -0.10979E-03  3680   0.592E-02    0.877E-02
RMM:   2    -0.878531577170E+03    0.42771E-04   -0.26751E-04  1564   0.370E-02
   1 F= -.89954071E+03 E0= -.89954071E+03  d E =-.899541E+03  mag=    -0.0000
