       N       E                     dE             d eps       ncg     rms          rms(c)
DAV:   1     0.155175256649E+05    0.15518E+05   -0.33202E+05  2304   0.148E+03
DAV:   2     0.572197499524E+04   -0.97956E+04   -0.85856E+04  2456   0.393E+02
DAV:   3     0.648306275937E+03   -0.50737E+04   -0.48068E+04  2904   0.265E+02
DAV:   4    -0.899032981906E+03   -0.15473E+04   -0.14162E+04  3168   0.139E+02
DAV:   5    -0.106746418189E+04   -0.16843E+03   -0.16660E+03  3824   0.605E+01    0.159E+02
RMM:   6    -0.871765107338E+03    0.19570E+03   -0.57063E+02  3166   0.301E+01    0.993E+01
RMM:   7    -0.946747084136E+03   -0.74982E+02   -0.11301E+03  3331   0.296E+01    0.145E+02
RMM:   8    -0.106653454370E+04   -0.11979E+03   -0.50753E+02  3106   0.307E+01    0.212E+02
RMM:   9    -0.100747417179E+04    0.59060E+02   -0.20262E+02  3161   0.125E+01    0.204E+02
RMM:  10    -0.102682098128E+04   -0.19347E+02   -0.24950E+02  3332   0.163E+01    0.236E+02
RMM:  11    -0.880323613898E+03    0.14650E+03   -0.68431E+01  3131   0.105E+01    0.100E+02
RMM:  12    -0.977664162570E+03   -0.97341E+02   -0.15268E+02  3122   0.168E+01    0.226E+02
RMM:  13    -0.935238169831E+03    0.42426E+02   -0.77925E+01  3214   0.101E+01    0.197E+02
RMM:  14    -0.894960990293E+03    0.40277E+02   -0.21333E+01  3184   0.654E+00    0.136E+02
RMM:  15    -0.906706297794E+03   -0.11745E+02   -0.36165E+01  3107   0.750E+00    0.160E+02
RMM:  16    -0.907176163669E+03   -0.46987E+00   -0.47953E+01  3120   0.998E+00    0.141E+02
RMM:  17    -0.877177407940E+03    0.29999E+02   -0.99369E+00  3086   0.560E+00    0.864E+01
RMM:  18    -0.865569402855E+03    0.11608E+02   -0.11877E+01  3300   0.423E+00    0.680E+01
RMM:  19    -0.877744463837E+03   -0.12175E+02   -0.12439E+01  3134   0.548E+00    0.817E+01
RMM:  20    -0.865341956853E+03    0.12403E+02   -0.82602E+00  3426   0.372E+00    0.670E+01
RMM:  21    -0.871537964703E+03   -0.61960E+01   -0.90192E+00  3347   0.427E+00    0.811E+01
RMM:  22    -0.868533901727E+03    0.30041E+01   -0.49213E+00  3342   0.326E+00    0.595E+01
RMM:  23    -0.870464090848E+03   -0.19302E+01   -0.37184E+00  3334   0.307E+00    0.616E+01
RMM:  24    -0.872509208990E+03   -0.20451E+01   -0.32895E+00  3616   0.228E+00    0.582E+01
RMM:  25    -0.872048053504E+03    0.46116E+00   -0.12883E+00  3227   0.195E+00    0.572E+01
RMM:  26    -0.873487548113E+03   -0.14395E+01   -0.10038E+00  3449   0.142E+00    0.581E+01
RMM:  27    -0.873969900322E+03   -0.48235E+00   -0.39273E-01  3328   0.113E+00    0.583E+01
RMM:  28    -0.874044878270E+03   -0.74978E-01   -0.14247E-01  3741   0.469E-01    0.582E+01
RMM:  29    -0.874463718449E+03   -0.41884E+00   -0.97366E-02  3718   0.384E-01    0.587E+01
RMM:  30    -0.874910249175E+03   -0.44653E+00   -0.60494E-02  3665   0.338E-01    0.588E+01
RMM:  31    -0.874749527886E+03    0.16072E+00   -0.66351E-02  3672   0.327E-01    0.585E+01
RMM:  32    -0.874796754280E+03   -0.47226E-01   -0.24751E-02  3684   0.217E-01    0.586E+01
RMM:  33    -0.874803870885E+03   -0.71166E-02   -0.15521E-02  3741   0.126E-01    0.585E+01
RMM:  34    -0.874470447777E+03    0.33342E+00   -0.36895E-02  3210   0.277E-01    0.586E+01
RMM:  35    -0.874237513294E+03    0.23293E+00   -0.15001E-02  2839   0.306E-01    0.586E+01
RMM:  36    -0.875124891765E+03   -0.88738E+00   -0.14900E-01  3193   0.542E-01    0.588E+01
RMM:  37    -0.874645693882E+03    0.47920E+00   -0.66522E-02  2925   0.631E-01    0.584E+01
RMM:  38    -0.874492186889E+03    0.15351E+00   -0.69543E-02  3342   0.347E-01    0.585E+01
RMM:  39    -0.874566705502E+03   -0.74519E-01   -0.20064E-01  3358   0.658E-01    0.582E+01
RMM:  40    -0.875136402244E+03   -0.56970E+00   -0.18978E-01  3351   0.576E-01    0.586E+01
RMM:  41    -0.875771321937E+03   -0.63492E+00   -0.11224E-01  3066   0.664E-01    0.587E+01
RMM:  42    -0.876647647864E+03   -0.87633E+00   -0.44076E-01  3433   0.798E-01    0.590E+01
RMM:  43    -0.878692879446E+03   -0.20452E+01   -0.77958E-01  3266   0.143E+00    0.606E+01
RMM:  44    -0.879060033396E+03   -0.36715E+00   -0.33265E-01  3376   0.901E-01    0.601E+01
RMM:  45    -0.879355433192E+03   -0.29540E+00   -0.96740E-02  3280   0.582E-01    0.600E+01
RMM:  46    -0.879804571383E+03   -0.44914E+00   -0.14013E-01  3517   0.489E-01    0.606E+01
RMM:  47    -0.879649871710E+03    0.15470E+00   -0.11352E-01  3271   0.573E-01    0.605E+01
RMM:  48    -0.879625911510E+03    0.23960E-01   -0.29929E-02  3367   0.274E-01    0.605E+01
RMM:  49    -0.879603924895E+03    0.21987E-01   -0.18224E-02  3088   0.269E-01    0.605E+01
RMM:  50    -0.879648858678E+03   -0.44934E-01   -0.51429E-03  3080   0.125E-01    0.605E+01
RMM:  51    -0.891677053210E+03   -0.12028E+02   -0.10272E+02  3138   0.120E+01    0.106E+02
RMM:  52    -0.862646166587E+03    0.29031E+02   -0.31646E+01  3075   0.763E+00    0.785E+01
RMM:  53    -0.880026274630E+03   -0.17380E+02   -0.29858E+01  3160   0.696E+00    0.112E+02
RMM:  54    -0.875397181855E+03    0.46291E+01   -0.59973E+00  3002   0.407E+00    0.959E+01
RMM:  55    -0.880055931789E+03   -0.46587E+01   -0.33613E+00  3383   0.199E+00    0.990E+01
RMM:  56    -0.876824197770E+03    0.32317E+01   -0.13554E+02  3222   0.129E+01    0.107E+02
RMM:  57    -0.847739207225E+03    0.29085E+02   -0.47120E+01  2965   0.130E+01    0.766E+01
RMM:  58    -0.846564952377E+03    0.11743E+01   -0.20571E+01  3346   0.591E+00    0.746E+01
RMM:  59    -0.841213890939E+03    0.53511E+01   -0.14356E+01  3174   0.669E+00    0.782E+01
RMM:  60    -0.833001634304E+03    0.82123E+01   -0.12608E+01  3441   0.499E+00    0.864E+01
RMM:  61    -0.818909869430E+03    0.14092E+02   -0.75373E+00  3268   0.446E+00    0.779E+01
RMM:  62    -0.821651481322E+03   -0.27416E+01   -0.31479E+00  3378   0.237E+00    0.803E+01
RMM:  63    -0.822505777093E+03   -0.85430E+00   -0.82508E-01  3391   0.136E+00    0.759E+01
RMM:  64    -0.824384897280E+03   -0.18791E+01   -0.44670E-01  3562   0.805E-01    0.783E+01
RMM:  65    -0.824937016224E+03   -0.55212E+00   -0.18826E-01  3550   0.607E-01    0.788E+01
RMM:  66    -0.836390955334E+03   -0.11454E+02   -0.70410E+00  2924   0.545E+00    0.709E+01
RMM:  67    -0.846576397341E+03   -0.10185E+02   -0.83491E+00  3140   0.445E+00    0.925E+01
RMM:  68    -0.843401412896E+03    0.31750E+01   -0.38572E+00  3089   0.322E+00    0.812E+01
RMM:  69    -0.849020446129E+03   -0.56190E+01   -0.28927E+00  3234   0.244E+00    0.844E+01
RMM:  70    -0.851885321708E+03   -0.28649E+01   -0.28110E+00  3100   0.282E+00    0.855E+01
RMM:  71    -0.852852838852E+03   -0.96752E+00   -0.62883E+00  3227   0.343E+00    0.797E+01
RMM:  72    -0.849648419185E+03    0.32044E+01   -0.40842E+00  3017   0.390E+00    0.767E+01
RMM:  73    -0.849397826919E+03    0.25059E+00   -0.51966E+00  3089   0.378E+00    0.786E+01
RMM:  74    -0.848102438384E+03    0.12954E+01   -0.53735E+00  3109   0.371E+00    0.837E+01
RMM:  75    -0.847939820711E+03    0.16262E+00   -0.21585E+00  3264   0.176E+00    0.840E+01
RMM:  76    -0.858579245211E+03   -0.10639E+02   -0.44414E+00  3137   0.320E+00    0.848E+01
RMM:  77    -0.853890075104E+03    0.46892E+01   -0.16228E+00  3103   0.214E+00    0.827E+01
RMM:  78    -0.862181794644E+03   -0.82917E+01   -0.16910E+00  3226   0.182E+00    0.909E+01
RMM:  79    -0.859720987697E+03    0.24608E+01   -0.10765E+00  3138   0.174E+00    0.906E+01
RMM:  80    -0.860236876578E+03   -0.51589E+00   -0.72298E-01  3309   0.115E+00    0.907E+01
RMM:  81    -0.849317159321E+03    0.10920E+02   -0.59664E+00  3184   0.325E+00    0.835E+01
RMM:  82    -0.853801183956E+03   -0.44840E+01   -0.29962E+00  3045   0.325E+00    0.857E+01
RMM:  83    -0.842480821517E+03    0.11320E+02   -0.33264E+00  3233   0.254E+00    0.822E+01
RMM:  84    -0.834795995025E+03    0.76848E+01   -0.90269E+00  3250   0.403E+00    0.812E+01
RMM:  85    -0.832931091958E+03    0.18649E+01   -0.28954E+00  3191   0.258E+00    0.822E+01
RMM:  86    -0.845316966949E+03   -0.12386E+02   -0.10549E+01  3030   0.528E+00    0.826E+01
RMM:  87    -0.841780533208E+03    0.35364E+01   -0.28705E+00  2965   0.316E+00    0.810E+01
RMM:  88    -0.839197118185E+03    0.25834E+01   -0.29417E+00  3113   0.270E+00    0.759E+01
RMM:  89    -0.833723334349E+03    0.54738E+01   -0.46938E+00  3211   0.306E+00    0.679E+01
RMM:  90    -0.834198348257E+03   -0.47501E+00   -0.24389E+00  3170   0.242E+00    0.666E+01
RMM:  91    -0.831777691884E+03    0.24207E+01   -0.19485E+01  3161   0.586E+00    0.597E+01
RMM:  92    -0.826065759297E+03    0.57119E+01   -0.47343E+00  2966   0.393E+00    0.524E+01
RMM:  93    -0.829040935116E+03   -0.29752E+01   -0.43348E+00  3201   0.292E+00    0.509E+01
RMM:  94    -0.830632632569E+03   -0.15917E+01   -0.35690E+00  3106   0.304E+00    0.411E+01
RMM:  95    -0.832425788722E+03   -0.17932E+01   -0.21379E+00  3186   0.228E+00    0.376E+01
RMM:  96    -0.848654816697E+03   -0.16229E+02   -0.34213E+01  3198   0.738E+00    0.289E+01
RMM:  97    -0.846800591107E+03    0.18542E+01   -0.62999E+00  2742   0.524E+00    0.255E+01
RMM:  98    -0.844876534978E+03    0.19241E+01   -0.45650E+00  3184   0.271E+00    0.229E+01
RMM:  99    -0.843531539010E+03    0.13450E+01   -0.33307E+00  3149   0.280E+00    0.244E+01
RMM: 100    -0.842903306642E+03    0.62823E+00   -0.13665E+00  3230   0.168E+00
   1 F= -.86323697E+03 E0= -.86321617E+03  d E =-.863237E+03  mag=     3.1041
       N       E                     dE             d eps       ncg     rms          rms(c)
DAV:   1    -0.841936522286E+03    0.15950E+01   -0.27520E+01  3496   0.140E+01    0.319E+01
RMM:   2    -0.964740935621E+03   -0.12280E+03   -0.28500E+02  3285   0.172E+01    0.132E+02
RMM:   3    -0.866411576829E+03    0.98329E+02   -0.55664E+01  2995   0.127E+01    0.346E+01
RMM:   4    -0.859270545078E+03    0.71410E+01   -0.11351E+01  3107   0.490E+00    0.245E+01
RMM:   5    -0.855263575362E+03    0.40070E+01   -0.12157E+01  3142   0.421E+00    0.163E+01
RMM:   6    -0.854596525234E+03    0.66705E+00   -0.78418E+00  3171   0.313E+00    0.123E+01
RMM:   7    -0.854592744517E+03    0.37807E-02   -0.32046E+00  3138   0.212E+00    0.987E+00
RMM:   8    -0.854992052461E+03   -0.39931E+00   -0.76278E-01  3206   0.894E-01    0.767E+00
RMM:   9    -0.855389863650E+03   -0.39781E+00   -0.91715E-01  2889   0.142E+00    0.627E+00
RMM:  10    -0.855432386815E+03   -0.42523E-01   -0.33566E-01  3261   0.485E-01    0.501E+00
RMM:  11    -0.855817289362E+03   -0.38490E+00   -0.53577E-01  3168   0.859E-01    0.250E+00
RMM:  12    -0.855806936423E+03    0.10353E-01   -0.26652E-01  2845   0.774E-01    0.277E+00
RMM:  13    -0.855790942496E+03    0.15994E-01   -0.25571E-01  3190   0.415E-01    0.158E+00
RMM:  14    -0.855779582752E+03    0.11360E-01   -0.49251E-02  3142   0.248E-01    0.125E+00
RMM:  15    -0.855770439591E+03    0.91432E-02   -0.27440E-02  3084   0.202E-01    0.101E+00
RMM:  16    -0.855763679759E+03    0.67598E-02   -0.11688E-02  3069   0.122E-01    0.892E-01
RMM:  17    -0.855753163102E+03    0.10517E-01   -0.10148E-02  3049   0.114E-01    0.803E-01
RMM:  18    -0.855747864931E+03    0.52982E-02   -0.52488E-03  2838   0.822E-02    0.738E-01
RMM:  19    -0.855744497888E+03    0.33670E-02   -0.26531E-03  2570   0.634E-02    0.700E-01
RMM:  20    -0.855740355446E+03    0.41424E-02   -0.22497E-03  2589   0.615E-02    0.644E-01
RMM:  21    -0.855733499338E+03    0.68561E-02   -0.40685E-03  2792   0.734E-02    0.581E-01
RMM:  22    -0.855729407008E+03    0.40923E-02   -0.22464E-03  2508   0.553E-02    0.537E-01
RMM:  23    -0.855724669772E+03    0.47372E-02   -0.27676E-03  2644   0.626E-02    0.483E-01
RMM:  24    -0.855721601141E+03    0.30686E-02   -0.17044E-03  2435   0.480E-02    0.445E-01
RMM:  25    -0.855717726911E+03    0.38742E-02   -0.23885E-03  2587   0.598E-02    0.396E-01
RMM:  26    -0.855712896119E+03    0.48308E-02   -0.45995E-03  2809   0.736E-02    0.323E-01
RMM:  27    -0.855709054881E+03    0.38412E-02   -0.51878E-03  2753   0.764E-02    0.250E-01
RMM:  28    -0.855706198974E+03    0.28559E-02   -0.58104E-03  2792   0.802E-02    0.172E-01
RMM:  29    -0.855704442051E+03    0.17569E-02   -0.73528E-03  2843   0.885E-02    0.842E-02
RMM:  30    -0.855704229759E+03    0.21229E-03   -0.37027E-03  2608   0.638E-02    0.351E-02
RMM:  31    -0.855704334056E+03   -0.10430E-03   -0.13518E-03  2307   0.437E-02    0.278E-02
RMM:  32    -0.855704514886E+03   -0.18083E-03   -0.76436E-04  2069   0.392E-02    0.459E-02
RMM:  33    -0.855704279118E+03    0.23577E-03   -0.51424E-04  1820   0.439E-02    0.216E-02
RMM:  34    -0.855704298217E+03   -0.19099E-04   -0.98967E-05  1462   0.177E-02
   2 F= -.87603932E+03 E0= -.87603920E+03  d E =-.128024E+02  mag=     2.0003
       N       E                     dE             d eps       ncg     rms          rms(c)
DAV:   1    -0.855704385987E+03   -0.10687E-03   -0.12621E-04  1672   0.223E-02    0.252E-02
RMM:   2    -0.855704374514E+03    0.11474E-04   -0.10888E-04  1435   0.205E-02
   3 F= -.87603940E+03 E0= -.87603928E+03  d E =-.128024E+02  mag=     2.0000
       N       E                     dE             d eps       ncg     rms          rms(c)
DAV:   1    -0.855714824836E+03   -0.10439E-01   -0.52794E-01  2880   0.987E-01    0.236E-01
RMM:   2    -0.855716260408E+03   -0.14356E-02   -0.21071E-02  2647   0.299E-01    0.337E-01
RMM:   3    -0.855716712704E+03   -0.45230E-03   -0.47156E-03  3110   0.678E-02    0.332E-01
RMM:   4    -0.855716670061E+03    0.42642E-04   -0.99822E-04  2176   0.438E-02
   4 F= -.87605144E+03 E0= -.87605130E+03  d E =-.128145E+02  mag=     2.0000
       N       E                     dE             d eps       ncg     rms          rms(c)
DAV:   1    -0.855726203857E+03   -0.94912E-02   -0.26068E+00  2688   0.219E+00    0.649E-01
RMM:   2    -0.855732407677E+03   -0.62038E-02   -0.11051E-01  2776   0.667E-01    0.910E-01
RMM:   3    -0.855735002769E+03   -0.25951E-02   -0.26801E-02  3425   0.152E-01    0.939E-01
RMM:   4    -0.855735513749E+03   -0.51098E-03   -0.85419E-03  3269   0.977E-02    0.974E-01
RMM:   5    -0.855735439777E+03    0.73972E-04   -0.48762E-03  3059   0.728E-02    0.970E-01
RMM:   6    -0.855754816399E+03   -0.19377E-01   -0.11572E-01  3052   0.373E-01    0.120E+00
RMM:   7    -0.855798463658E+03   -0.43647E-01   -0.10542E-01  3119   0.328E-01    0.178E+00
RMM:   8    -0.855887834832E+03   -0.89371E-01   -0.14186E-01  3124   0.381E-01    0.267E+00
RMM:   9    -0.855881871515E+03    0.59633E-02   -0.74371E-03  2711   0.886E-02    0.267E+00
RMM:  10    -0.855906271646E+03   -0.24400E-01   -0.92648E-03  2907   0.102E-01    0.281E+00
RMM:  11    -0.855877506690E+03    0.28765E-01   -0.54049E-03  2824   0.102E-01    0.264E+00
RMM:  12    -0.855812430991E+03    0.65076E-01   -0.68399E-02  3050   0.280E-01    0.211E+00
RMM:  13    -0.855785224348E+03    0.27207E-01   -0.15594E+00  3122   0.134E+00    0.114E+00
RMM:  14    -0.855823012828E+03   -0.37788E-01   -0.18243E-01  3124   0.367E-01    0.168E+00
RMM:  15    -0.855913783905E+03   -0.90771E-01   -0.13715E-01  3114   0.394E-01    0.249E+00
RMM:  16    -0.855887671719E+03    0.26112E-01   -0.58789E-03  2666   0.121E-01    0.237E+00
RMM:  17    -0.855788774833E+03    0.98897E-01   -0.14089E-01  3047   0.416E-01    0.154E+00
RMM:  18    -0.855769619556E+03    0.19155E-01   -0.37751E-02  3019   0.181E-01    0.121E+00
RMM:  19    -0.855771237565E+03   -0.16180E-02   -0.16416E-03  2268   0.568E-02    0.120E+00
RMM:  20    -0.855756960083E+03    0.14277E-01   -0.12191E-02  2920   0.119E-01    0.974E-01
RMM:  21    -0.855749647284E+03    0.73128E-02   -0.81020E-03  2895   0.100E-01    0.805E-01
RMM:  22    -0.855740475617E+03    0.91717E-02   -0.16783E-02  3044   0.138E-01    0.531E-01
RMM:  23    -0.855735701973E+03    0.47736E-02   -0.18089E-02  3004   0.138E-01    0.264E-01
RMM:  24    -0.855734812973E+03    0.88900E-03   -0.96115E-03  2953   0.103E-01    0.881E-02
RMM:  25    -0.855734915703E+03   -0.10273E-03   -0.16778E-03  2398   0.481E-02    0.559E-02
RMM:  26    -0.855734950800E+03   -0.35097E-04   -0.27254E-04  1557   0.298E-02
   5 F= -.87606917E+03 E0= -.87606895E+03  d E =-.128322E+02  mag=     1.9997
       N       E                     dE             d eps       ncg     rms          rms(c)
DAV:   1    -0.855736560696E+03   -0.16450E-02   -0.66649E-01  2656   0.111E+00    0.253E-01
RMM:   2    -0.855738541106E+03   -0.19804E-02   -0.26480E-02  2635   0.347E-01    0.382E-01
RMM:   3    -0.855739206467E+03   -0.66536E-03   -0.66735E-03  3230   0.815E-02    0.378E-01
RMM:   4    -0.855739174278E+03    0.32188E-04   -0.11201E-03  2377   0.396E-02    0.353E-01
RMM:   5    -0.855739404101E+03   -0.22982E-03   -0.21393E-03  2717   0.558E-02    0.255E-01
RMM:   6    -0.855739693380E+03   -0.28928E-03   -0.10244E-03  2271   0.439E-02    0.152E-01
RMM:   7    -0.855739682837E+03    0.10543E-04   -0.33484E-04  1626   0.371E-02
   6 F= -.87607362E+03 E0= -.87607336E+03  d E =-.128367E+02  mag=     2.0000
       N       E                     dE             d eps       ncg     rms          rms(c)
DAV:   1    -0.855739524871E+03    0.16851E-03   -0.16956E-01  2624   0.563E-01    0.211E-01
RMM:   2    -0.855739913721E+03   -0.38885E-03   -0.12006E-02  2932   0.196E-01    0.190E-01
RMM:   3    -0.855740056827E+03   -0.14311E-03   -0.19347E-03  2596   0.423E-02    0.155E-01
RMM:   4    -0.855740069837E+03   -0.13010E-04   -0.73855E-04  1947   0.489E-02
   7 F= -.87607387E+03 E0= -.87607357E+03  d E =-.128369E+02  mag=     2.0000
       N       E                     dE             d eps       ncg     rms          rms(c)
DAV:   1    -0.855744137874E+03   -0.40810E-02   -0.19822E-01  2552   0.588E-01    0.199E-01
RMM:   2    -0.855744840847E+03   -0.70297E-03   -0.10690E-02  2742   0.202E-01    0.213E-01
RMM:   3    -0.855745023536E+03   -0.18269E-03   -0.20691E-03  2630   0.469E-02    0.195E-01
RMM:   4    -0.855745052022E+03   -0.28486E-04   -0.93827E-04  2067   0.460E-02
   8 F= -.87607841E+03 E0= -.87607813E+03  d E =-.454235E-02  mag=     2.0000
       N       E                     dE             d eps       ncg     rms          rms(c)
DAV:   1    -0.855744722258E+03    0.30128E-03   -0.17507E+00  2440   0.174E+00    0.534E-01
RMM:   2    -0.855750662499E+03   -0.59402E-02   -0.96060E-02  2824   0.601E-01    0.665E-01
RMM:   3    -0.855752787684E+03   -0.21252E-02   -0.22722E-02  3399   0.139E-01    0.643E-01
RMM:   4    -0.855753530213E+03   -0.74253E-03   -0.14003E-02  3117   0.129E-01    0.564E-01
RMM:   5    -0.855754992429E+03   -0.14622E-02   -0.67436E-03  3075   0.772E-02    0.528E-01
RMM:   6    -0.855756179300E+03   -0.11869E-02   -0.31316E-03  2771   0.716E-02    0.378E-01
RMM:   7    -0.855755323983E+03    0.85532E-03   -0.17621E-03  2414   0.594E-02    0.332E-01
RMM:   8    -0.855754258432E+03    0.10656E-02   -0.13399E-03  2307   0.473E-02    0.274E-01
RMM:   9    -0.855753648632E+03    0.60980E-03   -0.10760E-03  2241   0.443E-02    0.225E-01
RMM:  10    -0.855753065940E+03    0.58269E-03   -0.21117E-03  2659   0.572E-02    0.139E-01
RMM:  11    -0.855752854665E+03    0.21127E-03   -0.11320E-03  2307   0.462E-02    0.785E-02
RMM:  12    -0.855752836910E+03    0.17755E-04   -0.53462E-04  1810   0.377E-02
   9 F= -.87608489E+03 E0= -.87608466E+03  d E =-.110181E-01  mag=     2.0000
       N       E                     dE             d eps       ncg     rms          rms(c)
DAV:   1    -0.855754832668E+03   -0.19780E-02   -0.25776E-01  2768   0.655E-01    0.118E-01
RMM:   2    -0.855755571497E+03   -0.73883E-03   -0.86683E-03  2700   0.183E-01    0.105E-01
RMM:   3    -0.855755700920E+03   -0.12942E-03   -0.14377E-03  2342   0.419E-02    0.904E-02
RMM:   4    -0.855755689075E+03    0.11845E-04   -0.18263E-04  1419   0.334E-02
  10 F= -.87608753E+03 E0= -.87608733E+03  d E =-.264614E-02  mag=     2.0000
       N       E                     dE             d eps       ncg     rms          rms(c)
DAV:   1    -0.855753511612E+03    0.21893E-02   -0.23110E+00  2368   0.196E+00    0.372E-01
RMM:   2    -0.855760106293E+03   -0.65947E-02   -0.77494E-02  2763   0.552E-01    0.340E-01
RMM:   3    -0.855761564547E+03   -0.14583E-02   -0.16603E-02  3391   0.128E-01    0.300E-01
RMM:   4    -0.855761446491E+03    0.11806E-03   -0.32559E-03  3184   0.595E-02    0.244E-01
RMM:   5    -0.855761516729E+03   -0.70237E-04   -0.19282E-03  2839   0.502E-02    0.122E-01
RMM:   6    -0.855761494296E+03    0.22432E-04   -0.67783E-04  2004   0.346E-02
  11 F= -.87609272E+03 E0= -.87609258E+03  d E =-.783451E-02  mag=     2.0000
       N       E                     dE             d eps       ncg     rms          rms(c)
DAV:   1    -0.855727981098E+03    0.33536E-01   -0.92571E+00  2304   0.392E+00    0.715E-01
RMM:   2    -0.855756151613E+03   -0.28171E-01   -0.32294E-01  2836   0.110E+00    0.627E-01
RMM:   3    -0.855761185408E+03   -0.50338E-02   -0.59383E-02  3459   0.238E-01    0.548E-01
RMM:   4    -0.855760633089E+03    0.55232E-03   -0.12281E-02  3354   0.114E-01    0.450E-01
RMM:   5    -0.855760868560E+03   -0.23547E-03   -0.70966E-03  3303   0.875E-02    0.243E-01
RMM:   6    -0.855760798753E+03    0.69806E-04   -0.33119E-03  3194   0.628E-02    0.113E-01
RMM:   7    -0.855760828012E+03   -0.29259E-04   -0.16688E-03  2775   0.441E-02    0.737E-02
RMM:   8    -0.855760836994E+03   -0.89819E-05   -0.68858E-04  1923   0.316E-02
  12 F= -.87609084E+03 E0= -.87609077E+03  d E =-.594904E-02  mag=     2.0000
       N       E                     dE             d eps       ncg     rms          rms(c)
DAV:   1    -0.855748762536E+03    0.12065E-01   -0.44766E+00  2384   0.273E+00    0.468E-01
RMM:   2    -0.855761393373E+03   -0.12631E-01   -0.14683E-01  2792   0.749E-01    0.434E-01
RMM:   3    -0.855763497406E+03   -0.21040E-02   -0.24986E-02  3105   0.162E-01    0.384E-01
RMM:   4    -0.855763127468E+03    0.36994E-03   -0.40264E-03  3143   0.721E-02    0.311E-01
RMM:   5    -0.855763171508E+03   -0.44040E-04   -0.27676E-03  2864   0.595E-02    0.153E-01
RMM:   6    -0.855763087418E+03    0.84090E-04   -0.74004E-04  1985   0.420E-02
  13 F= -.87609394E+03 E0= -.87609383E+03  d E =-.905504E-02  mag=     2.0000
       N       E                     dE             d eps       ncg     rms          rms(c)
DAV:   1    -0.855764585457E+03   -0.14139E-02   -0.37340E-01  2480   0.787E-01    0.145E-01
RMM:   2    -0.855765670884E+03   -0.10854E-02   -0.12739E-02  2733   0.218E-01    0.109E-01
RMM:   3    -0.855765777749E+03   -0.10687E-03   -0.16730E-03  2423   0.460E-02    0.883E-02
RMM:   4    -0.855765734702E+03    0.43048E-04   -0.20679E-04  1428   0.349E-02
  14 F= -.87609650E+03 E0= -.87609641E+03  d E =-.256163E-02  mag=     2.0000
       N       E                     dE             d eps       ncg     rms          rms(c)
DAV:   1    -0.855764532588E+03    0.12452E-02   -0.10438E+00  2352   0.131E+00    0.259E-01
RMM:   2    -0.855767911888E+03   -0.33793E-02   -0.38781E-02  2823   0.375E-01    0.197E-01
RMM:   3    -0.855768490836E+03   -0.57895E-03   -0.73168E-03  3376   0.827E-02    0.158E-01
RMM:   4    -0.855768441522E+03    0.49314E-04   -0.11950E-03  2415   0.401E-02    0.113E-01
RMM:   5    -0.855768454177E+03   -0.12655E-04   -0.58677E-04  1907   0.360E-02
  15 F= -.87609908E+03 E0= -.87609901E+03  d E =-.513900E-02  mag=     2.0000
       N       E                     dE             d eps       ncg     rms          rms(c)
DAV:   1    -0.855751606910E+03    0.16835E-01   -0.41732E+00  2328   0.263E+00    0.499E-01
RMM:   2    -0.855765330184E+03   -0.13723E-01   -0.15598E-01  2893   0.744E-01    0.357E-01
RMM:   3    -0.855767568129E+03   -0.22379E-02   -0.28536E-02  3556   0.159E-01    0.286E-01
RMM:   4    -0.855767481769E+03    0.86360E-04   -0.53104E-03  3363   0.715E-02    0.213E-01
RMM:   5    -0.855767559035E+03   -0.77266E-04   -0.25370E-03  3048   0.528E-02    0.123E-01
RMM:   6    -0.855767698982E+03   -0.13995E-03   -0.14895E-03  2611   0.400E-02    0.573E-02
RMM:   7    -0.855767748732E+03   -0.49749E-04   -0.59491E-04  1911   0.356E-02
  16 F= -.87609810E+03 E0= -.87609806E+03  d E =-.415397E-02  mag=     2.0000
       N       E                     dE             d eps       ncg     rms          rms(c)
DAV:   1    -0.855761962264E+03    0.57367E-02   -0.21355E+00  2336   0.188E+00    0.350E-01
RMM:   2    -0.855768467234E+03   -0.65050E-02   -0.74924E-02  2821   0.522E-01    0.253E-01
RMM:   3    -0.855769305128E+03   -0.83789E-03   -0.11297E-02  3020   0.111E-01    0.199E-01
RMM:   4    -0.855769169210E+03    0.13592E-03   -0.12623E-03  2345   0.466E-02    0.139E-01
RMM:   5    -0.855769150593E+03    0.18616E-04   -0.64005E-04  1894   0.391E-02
  17 F= -.87609970E+03 E0= -.87609964E+03  d E =-.575515E-02  mag=     2.0000
       N       E                     dE             d eps       ncg     rms          rms(c)
DAV:   1    -0.855768757803E+03    0.41141E-03   -0.17367E-01  2448   0.539E-01    0.902E-02
RMM:   2    -0.855769283940E+03   -0.52614E-03   -0.60262E-03  2697   0.148E-01    0.682E-02
RMM:   3    -0.855769314650E+03   -0.30711E-04   -0.54564E-04  1722   0.308E-02
  18 F= -.87609981E+03 E0= -.87609976E+03  d E =-.586279E-02  mag=     2.0000
       N       E                     dE             d eps       ncg     rms          rms(c)
DAV:   1    -0.855769028395E+03    0.25554E-03   -0.74708E-02  2472   0.356E-01    0.604E-02
RMM:   2    -0.855769274647E+03   -0.24625E-03   -0.27933E-03  2721   0.935E-02    0.322E-02
RMM:   3    -0.855769292442E+03   -0.17795E-04   -0.23197E-04  1344   0.218E-02
  19 F= -.87609982E+03 E0= -.87609977E+03  d E =-.587821E-02  mag=     2.0000
       N       E                     dE             d eps       ncg     rms          rms(c)
DAV:   1    -0.855769276734E+03   -0.20865E-05   -0.18373E-02  2720   0.178E-01    0.306E-02
RMM:   2    -0.855769318627E+03   -0.41893E-04   -0.47895E-04  1651   0.455E-02
  20 F= -.87609983E+03 E0= -.87609978E+03  d E =-.588558E-02  mag=     2.0000
       N       E                     dE             d eps       ncg     rms          rms(c)
DAV:   1    -0.855769322925E+03   -0.46191E-04   -0.49763E-03  2672   0.942E-02    0.187E-02
RMM:   2    -0.855769324400E+03   -0.14752E-05   -0.10434E-04  1272   0.235E-02
  21 F= -.87609984E+03 E0= -.87609979E+03  d E =-.590133E-02  mag=     2.0000
       N       E                     dE             d eps       ncg     rms          rms(c)
DAV:   1    -0.855769326651E+03   -0.37258E-05   -0.11622E-03  2192   0.486E-02    0.113E-02
RMM:   2    -0.855769333534E+03   -0.68831E-05   -0.42934E-05  1156   0.176E-02
  22 F= -.87609985E+03 E0= -.87609980E+03  d E =-.590546E-02  mag=     2.0000
       N       E                     dE             d eps       ncg     rms          rms(c)
DAV:   1    -0.855769449153E+03   -0.12250E-03   -0.94039E-01  2320   0.126E+00    0.205E-01
RMM:   2    -0.855772003436E+03   -0.25543E-02   -0.28648E-02  2766   0.329E-01    0.158E-01
RMM:   3    -0.855772434967E+03   -0.43153E-03   -0.50687E-03  3052   0.751E-02    0.131E-01
RMM:   4    -0.855772382417E+03    0.52549E-04   -0.55380E-04  1818   0.359E-02
  23 F= -.87610233E+03 E0= -.87610229E+03  d E =-.247946E-02  mag=     2.0000
       N       E                     dE             d eps       ncg     rms          rms(c)
DAV:   1    -0.855754547555E+03    0.17887E-01   -0.69147E+00  2304   0.342E+00    0.574E-01
RMM:   2    -0.855773537553E+03   -0.18990E-01   -0.21239E-01  2826   0.890E-01    0.444E-01
RMM:   3    -0.855776935685E+03   -0.33981E-02   -0.40498E-02  3401   0.203E-01    0.372E-01
RMM:   4    -0.855776840408E+03    0.95276E-04   -0.75417E-03  3337   0.865E-02    0.269E-01
RMM:   5    -0.855776947733E+03   -0.10732E-03   -0.34880E-03  3182   0.645E-02    0.124E-01
RMM:   6    -0.855777033964E+03   -0.86231E-04   -0.18244E-03  2892   0.453E-02    0.658E-02
RMM:   7    -0.855777064000E+03   -0.30036E-04   -0.74640E-04  2081   0.384E-02
  24 F= -.87610546E+03 E0= -.87610544E+03  d E =-.561288E-02  mag=     2.0000
       N       E                     dE             d eps       ncg     rms          rms(c)
DAV:   1    -0.855775561753E+03    0.14722E-02   -0.37542E-01  2688   0.799E-01    0.133E-01
RMM:   2    -0.855776485199E+03   -0.92345E-03   -0.10893E-02  2696   0.204E-01    0.107E-01
RMM:   3    -0.855776619946E+03   -0.13475E-03   -0.15206E-03  2336   0.456E-02    0.901E-02
RMM:   4    -0.855776605140E+03    0.14806E-04   -0.19458E-04  1429   0.316E-02
  25 F= -.87610536E+03 E0= -.87610534E+03  d E =-.551510E-02  mag=     2.0000
       N       E                     dE             d eps       ncg     rms          rms(c)
DAV:   1    -0.855776579690E+03    0.40256E-04   -0.12938E-01  2416   0.471E-01    0.714E-02
RMM:   2    -0.855776926224E+03   -0.34653E-03   -0.38625E-03  2518   0.126E-01    0.462E-02
RMM:   3    -0.855776986946E+03   -0.60722E-04   -0.54162E-04  1816   0.316E-02
  26 F= -.87610554E+03 E0= -.87610552E+03  d E =-.568759E-02  mag=     2.0000
       N       E                     dE             d eps       ncg     rms          rms(c)
DAV:   1    -0.855776755504E+03    0.17072E-03   -0.31369E-02  2808   0.237E-01    0.406E-02
RMM:   2    -0.855776814030E+03   -0.58526E-04   -0.74990E-04  2009   0.551E-02
  27 F= -.87610547E+03 E0= -.87610545E+03  d E =-.561934E-02  mag=     2.0000
       N       E                     dE             d eps       ncg     rms          rms(c)
DAV:   1    -0.855776922391E+03   -0.16689E-03   -0.16828E-02  2368   0.170E-01    0.273E-02
RMM:   2    -0.855776954305E+03   -0.31914E-04   -0.34455E-04  1520   0.412E-02
  28 F= -.87610553E+03 E0= -.87610551E+03  d E =-.568168E-02  mag=     2.0000
       N       E                     dE             d eps       ncg     rms          rms(c)
DAV:   1    -0.855776903524E+03    0.18867E-04   -0.41276E-03  2736   0.888E-02    0.174E-02
RMM:   2    -0.855776909960E+03   -0.64359E-05   -0.72601E-05  1248   0.209E-02
  29 F= -.87610553E+03 E0= -.87610550E+03  d E =-.567630E-02  mag=     2.0000
       N       E                     dE             d eps       ncg     rms          rms(c)
DAV:   1    -0.855776948699E+03   -0.45175E-04   -0.15983E-03  2120   0.549E-02    0.105E-02
RMM:   2    -0.855776952623E+03   -0.39245E-05   -0.44782E-05  1178   0.177E-02
  30 F= -.87610554E+03 E0= -.87610552E+03  d E =-.569423E-02  mag=     2.0000
       N       E                     dE             d eps       ncg     rms          rms(c)
DAV:   1    -0.855777892851E+03   -0.94415E-03   -0.31703E-01  2320   0.730E-01    0.149E-01
RMM:   2    -0.855778973807E+03   -0.10810E-02   -0.14161E-02  2956   0.217E-01    0.154E-01
RMM:   3    -0.855779048330E+03   -0.74522E-04   -0.15491E-03  2417   0.419E-02    0.126E-01
RMM:   4    -0.855779021596E+03    0.26734E-04   -0.28140E-04  1510   0.367E-02
  31 F= -.87610712E+03 E0= -.87610710E+03  d E =-.158082E-02  mag=     2.0000
       N       E                     dE             d eps       ncg     rms          rms(c)
DAV:   1    -0.855779325025E+03   -0.27670E-03   -0.73034E-02  2728   0.348E-01    0.102E-01
RMM:   2    -0.855779540810E+03   -0.21578E-03   -0.33031E-03  2660   0.107E-01    0.106E-01
RMM:   3    -0.855779582567E+03   -0.41757E-04   -0.63668E-04  1916   0.274E-02
  32 F= -.87610745E+03 E0= -.87610743E+03  d E =-.190706E-02  mag=     2.0000
       N       E                     dE             d eps       ncg     rms          rms(c)
DAV:   1    -0.855780032109E+03   -0.49130E-03   -0.34368E-01  2336   0.757E-01    0.157E-01
RMM:   2    -0.855780905729E+03   -0.87362E-03   -0.95360E-03  2715   0.177E-01    0.160E-01
RMM:   3    -0.855781002286E+03   -0.96557E-04   -0.12808E-03  2305   0.410E-02    0.145E-01
RMM:   4    -0.855780999931E+03    0.23550E-05   -0.40544E-04  1727   0.360E-02
  33 F= -.87610860E+03 E0= -.87610858E+03  d E =-.115372E-02  mag=     2.0000
       N       E                     dE             d eps       ncg     rms          rms(c)
DAV:   1    -0.855778785179E+03    0.22171E-02   -0.11620E+00  2304   0.139E+00    0.259E-01
RMM:   2    -0.855781698912E+03   -0.29137E-02   -0.32273E-02  2891   0.319E-01    0.249E-01
RMM:   3    -0.855782007215E+03   -0.30830E-03   -0.41637E-03  3036   0.641E-02    0.215E-01
RMM:   4    -0.855781994121E+03    0.13095E-04   -0.12272E-03  2320   0.462E-02    0.151E-01
RMM:   5    -0.855782024048E+03   -0.29927E-04   -0.36248E-04  1642   0.339E-02
  34 F= -.87610914E+03 E0= -.87610912E+03  d E =-.169160E-02  mag=     2.0000
       N       E                     dE             d eps       ncg     rms          rms(c)
DAV:   1    -0.855782256551E+03   -0.26243E-03   -0.20246E-01  2824   0.562E-01    0.117E-01
RMM:   2    -0.855782850265E+03   -0.59371E-03   -0.75653E-03  2876   0.150E-01    0.110E-01
RMM:   3    -0.855782895154E+03   -0.44889E-04   -0.84264E-04  1990   0.317E-02
  35 F= -.87610960E+03 E0= -.87610958E+03  d E =-.459589E-03  mag=     2.0000
       N       E                     dE             d eps       ncg     rms          rms(c)
DAV:   1    -0.855783002234E+03   -0.15197E-03   -0.33993E-03  3432   0.855E-02    0.761E-02
RMM:   2    -0.855783019634E+03   -0.17400E-04   -0.24094E-04  1429   0.383E-02
  36 F= -.87610968E+03 E0= -.87610965E+03  d E =-.535780E-03  mag=     2.0000
       N       E                     dE             d eps       ncg     rms          rms(c)
DAV:   1    -0.855783173424E+03   -0.17119E-03   -0.11417E-02  2816   0.135E-01    0.571E-02
RMM:   2    -0.855783196710E+03   -0.23286E-04   -0.34805E-04  1571   0.440E-02
  37 F= -.87610976E+03 E0= -.87610973E+03  d E =-.616286E-03  mag=     2.0000
       N       E                     dE             d eps       ncg     rms          rms(c)
DAV:   1    -0.855783564797E+03   -0.39137E-03   -0.26140E-02  2400   0.195E-01    0.784E-02
RMM:   2    -0.855783637517E+03   -0.72720E-04   -0.88585E-04  2050   0.596E-02
  38 F= -.87611010E+03 E0= -.87611008E+03  d E =-.342990E-03  mag=     2.0000
