       N       E                     dE             d eps       ncg     rms          rms(c)
DAV:   1    -0.885677630864E+03   -0.88568E+03   -0.87477E-05  1296   0.752E-03    0.756E-03
RMM:   2    -0.885677637685E+03   -0.68210E-05   -0.24289E-05  1052   0.742E-03
   1 F= -.90654271E+03 E0= -.90654271E+03  d E =-.906543E+03  mag=    -2.0000
       N       E                     dE             d eps       ncg     rms          rms(c)
DAV:   1    -0.885678606857E+03   -0.97599E-03   -0.94762E-02  2432   0.311E-01    0.792E-02
RMM:   2    -0.885678793231E+03   -0.18637E-03   -0.23754E-03  2410   0.786E-02    0.711E-02
RMM:   3    -0.885678807663E+03   -0.14432E-04   -0.21974E-04  1451   0.305E-02
   2 F= -.90654415E+03 E0= -.90654415E+03  d E =-.143852E-02  mag=    -2.0000
       N       E                     dE             d eps       ncg     rms          rms(c)
DAV:   1    -0.885679046385E+03   -0.25315E-03   -0.89731E-02  2608   0.306E-01    0.102E-01
RMM:   2    -0.885679246004E+03   -0.19962E-03   -0.24607E-03  2489   0.818E-02    0.912E-02
RMM:   3    -0.885679263173E+03   -0.17169E-04   -0.24767E-04  1500   0.310E-02
   3 F= -.90654486E+03 E0= -.90654486E+03  d E =-.215451E-02  mag=    -2.0000
       N       E                     dE             d eps       ncg     rms          rms(c)
DAV:   1    -0.885679285700E+03   -0.39696E-04   -0.73878E-03  3424   0.932E-02    0.490E-02
RMM:   2    -0.885679304702E+03   -0.19002E-04   -0.19218E-04  1439   0.273E-02
   4 F= -.90654498E+03 E0= -.90654498E+03  d E =-.226910E-02  mag=    -2.0000
       N       E                     dE             d eps       ncg     rms          rms(c)
DAV:   1    -0.885679638310E+03   -0.35261E-03   -0.60159E-02  2464   0.292E-01    0.668E-02
RMM:   2    -0.885679777781E+03   -0.13947E-03   -0.16194E-03  2314   0.753E-02    0.729E-02
RMM:   3    -0.885679793195E+03   -0.15414E-04   -0.22656E-04  1469   0.281E-02
   5 F= -.90654552E+03 E0= -.90654552E+03  d E =-.543426E-03  mag=    -2.0000
       N       E                     dE             d eps       ncg     rms          rms(c)
DAV:   1    -0.885679853367E+03   -0.75585E-04   -0.91091E-03  3392   0.119E-01    0.805E-02
RMM:   2    -0.885679856052E+03   -0.26857E-05   -0.22608E-04  1400   0.285E-02
   6 F= -.90654560E+03 E0= -.90654560E+03  d E =-.627196E-03  mag=    -2.0000
       N       E                     dE             d eps       ncg     rms          rms(c)
DAV:   1    -0.885680146855E+03   -0.29349E-03   -0.23946E-02  2544   0.190E-01    0.553E-02
RMM:   2    -0.885680194711E+03   -0.47856E-04   -0.54867E-04  1771   0.496E-02
   7 F= -.90654597E+03 E0= -.90654597E+03  d E =-.368826E-03  mag=    -2.0000
       N       E                     dE             d eps       ncg     rms          rms(c)
DAV:   1    -0.885680449349E+03   -0.30249E-03   -0.85359E-02  2432   0.359E-01    0.968E-02
RMM:   2    -0.885680640162E+03   -0.19081E-03   -0.23062E-03  2620   0.894E-02    0.113E-01
RMM:   3    -0.885680660618E+03   -0.20456E-04   -0.27761E-04  1543   0.300E-02
   8 F= -.90654649E+03 E0= -.90654649E+03  d E =-.890596E-03  mag=    -2.0000
       N       E                     dE             d eps       ncg     rms          rms(c)
DAV:   1    -0.885680015801E+03    0.62436E-03   -0.33642E-01  2400   0.711E-01    0.178E-01
RMM:   2    -0.885680742830E+03   -0.72703E-03   -0.87533E-03  2809   0.182E-01    0.206E-01
RMM:   3    -0.885680859403E+03   -0.11657E-03   -0.14640E-03  2368   0.514E-02    0.216E-01
RMM:   4    -0.885680880155E+03   -0.20752E-04   -0.28757E-04  1540   0.380E-02
   9 F= -.90654683E+03 E0= -.90654683E+03  d E =-.122202E-02  mag=    -2.0000
       N       E                     dE             d eps       ncg     rms          rms(c)
DAV:   1    -0.885680883842E+03   -0.24439E-04   -0.59919E-02  3056   0.301E-01    0.140E-01
RMM:   2    -0.885680829506E+03    0.54336E-04   -0.20718E-03  2578   0.769E-02    0.800E-02
RMM:   3    -0.885680847309E+03   -0.17803E-04   -0.95055E-04  2179   0.407E-02
  10 F= -.90654675E+03 E0= -.90654675E+03  d E =-.114199E-02  mag=    -2.0000
       N       E                     dE             d eps       ncg     rms          rms(c)
DAV:   1    -0.885680834624E+03   -0.51171E-05   -0.21885E-02  3328   0.190E-01    0.345E-02
RMM:   2    -0.885680888243E+03   -0.53619E-04   -0.45746E-04  1689   0.408E-02
  11 F= -.90654682E+03 E0= -.90654682E+03  d E =-.121211E-02  mag=    -2.0000
       N       E                     dE             d eps       ncg     rms          rms(c)
DAV:   1    -0.885680913122E+03   -0.78499E-04   -0.55086E-03  2800   0.942E-02    0.327E-02
RMM:   2    -0.885680922877E+03   -0.97548E-05   -0.10743E-04  1275   0.232E-02
  12 F= -.90654684E+03 E0= -.90654684E+03  d E =-.123213E-02  mag=    -2.0000
       N       E                     dE             d eps       ncg     rms          rms(c)
DAV:   1    -0.885680937332E+03   -0.24210E-04   -0.10383E-03  2048   0.414E-02    0.164E-02
RMM:   2    -0.885680946533E+03   -0.92003E-05   -0.28407E-05  1191   0.126E-02
  13 F= -.90654687E+03 E0= -.90654687E+03  d E =-.126226E-02  mag=    -2.0000
       N       E                     dE             d eps       ncg     rms          rms(c)
DAV:   1    -0.885680955544E+03   -0.18211E-04   -0.99057E-05  1472   0.139E-02    0.117E-02
RMM:   2    -0.885680962124E+03   -0.65806E-05   -0.15341E-05  1162   0.922E-03
  14 F= -.90654688E+03 E0= -.90654688E+03  d E =-.127596E-02  mag=    -2.0000
       N       E                     dE             d eps       ncg     rms          rms(c)
DAV:   1    -0.885680969169E+03   -0.13625E-04   -0.36444E-05  1440   0.700E-03    0.890E-03
RMM:   2    -0.885680974363E+03   -0.51940E-05   -0.10568E-05  1134   0.608E-03
  15 F= -.90654689E+03 E0= -.90654689E+03  d E =-.128908E-02  mag=    -2.0000
       N       E                     dE             d eps       ncg     rms          rms(c)
DAV:   1    -0.885680901650E+03    0.67519E-04   -0.72758E-02  2432   0.321E-01    0.535E-02
RMM:   2    -0.885681047471E+03   -0.14582E-03   -0.17114E-03  2363   0.788E-02    0.588E-02
RMM:   3    -0.885681058493E+03   -0.11023E-04   -0.21074E-04  1390   0.283E-02
  16 F= -.90654705E+03 E0= -.90654705E+03  d E =-.158106E-03  mag=    -2.0000
       N       E                     dE             d eps       ncg     rms          rms(c)
DAV:   1    -0.885681056899E+03   -0.94281E-05   -0.17965E-03  2576   0.606E-02    0.463E-02
RMM:   2    -0.885681066382E+03   -0.94831E-05   -0.68599E-05  1228   0.188E-02
  17 F= -.90654705E+03 E0= -.90654705E+03  d E =-.154450E-03  mag=    -2.0000
       N       E                     dE             d eps       ncg     rms          rms(c)
DAV:   1    -0.885681086123E+03   -0.29224E-04   -0.10243E-03  1920   0.410E-02    0.280E-02
RMM:   2    -0.885681092597E+03   -0.64740E-05   -0.32686E-05  1193   0.134E-02
  18 F= -.90654708E+03 E0= -.90654708E+03  d E =-.190018E-03  mag=    -2.0000
       N       E                     dE             d eps       ncg     rms          rms(c)
DAV:   1    -0.885681152681E+03   -0.66557E-04   -0.35425E-03  2480   0.633E-02    0.207E-02
RMM:   2    -0.885681160955E+03   -0.82745E-05   -0.88233E-05  1210   0.190E-02
  19 F= -.90654717E+03 E0= -.90654717E+03  d E =-.882143E-04  mag=    -2.0000
       N       E                     dE             d eps       ncg     rms          rms(c)
DAV:   1    -0.885681200885E+03   -0.48204E-04   -0.87481E-03  2688   0.100E-01    0.339E-02
RMM:   2    -0.885681222925E+03   -0.22040E-04   -0.21832E-04  1384   0.281E-02
  20 F= -.90654726E+03 E0= -.90654726E+03  d E =-.181043E-03  mag=    -2.0000
       N       E                     dE             d eps       ncg     rms          rms(c)
DAV:   1    -0.885681135155E+03    0.65730E-04   -0.34448E-02  2448   0.196E-01    0.689E-02
RMM:   2    -0.885681190671E+03   -0.55517E-04   -0.96868E-04  1943   0.590E-02
  21 F= -.90654729E+03 E0= -.90654729E+03  d E =-.210570E-03  mag=    -2.0000
       N       E                     dE             d eps       ncg     rms          rms(c)
DAV:   1    -0.885681195372E+03   -0.60217E-04   -0.12689E-02  2976   0.122E-01    0.504E-02
RMM:   2    -0.885681239888E+03   -0.44516E-04   -0.27166E-04  1429   0.303E-02
  22 F= -.90654731E+03 E0= -.90654731E+03  d E =-.221655E-03  mag=    -2.0000
       N       E                     dE             d eps       ncg     rms          rms(c)
DAV:   1    -0.885681248802E+03   -0.53430E-04   -0.45213E-03  2784   0.734E-02    0.333E-02
RMM:   2    -0.885681264514E+03   -0.15712E-04   -0.10419E-04  1208   0.203E-02
  23 F= -.90654735E+03 E0= -.90654735E+03  d E =-.269749E-03  mag=    -2.0000
       N       E                     dE             d eps       ncg     rms          rms(c)
DAV:   1    -0.885681273001E+03   -0.24200E-04   -0.58335E-04  1904   0.289E-02    0.228E-02
RMM:   2    -0.885681281810E+03   -0.88088E-05   -0.21881E-05  1143   0.104E-02
  24 F= -.90654736E+03 E0= -.90654736E+03  d E =-.278618E-03  mag=    -2.0000
       N       E                     dE             d eps       ncg     rms          rms(c)
DAV:   1    -0.885681291225E+03   -0.18224E-04   -0.23854E-04  1600   0.168E-02    0.165E-02
RMM:   2    -0.885681295822E+03   -0.45971E-05   -0.15715E-05  1120   0.890E-03
  25 F= -.90654738E+03 E0= -.90654738E+03  d E =-.297882E-03  mag=    -2.0000
       N       E                     dE             d eps       ncg     rms          rms(c)
DAV:   1    -0.885681334060E+03   -0.42835E-04   -0.22003E-03  1936   0.454E-02    0.160E-02
RMM:   2    -0.885681340098E+03   -0.60373E-05   -0.62156E-05  1166   0.161E-02
  26 F= -.90654744E+03 E0= -.90654744E+03  d E =-.622870E-04  mag=    -2.0000
       N       E                     dE             d eps       ncg     rms          rms(c)
DAV:   1    -0.885681350675E+03   -0.16615E-04   -0.19394E-02  2448   0.132E-01    0.413E-02
RMM:   2    -0.885681375904E+03   -0.25229E-04   -0.43998E-04  1349   0.329E-02
  27 F= -.90654753E+03 E0= -.90654753E+03  d E =-.152118E-03  mag=    -2.0000
       N       E                     dE             d eps       ncg     rms          rms(c)
DAV:   1    -0.885681445317E+03   -0.94642E-04   -0.33868E-03  2592   0.558E-02    0.407E-02
RMM:   2    -0.885681458093E+03   -0.12776E-04   -0.13807E-04  1214   0.235E-02
  28 F= -.90654762E+03 E0= -.90654762E+03  d E =-.836344E-04  mag=    -2.0000
       N       E                     dE             d eps       ncg     rms          rms(c)
DAV:   1    -0.885681566006E+03   -0.12069E-03   -0.29667E-02  2512   0.148E-01    0.456E-02
RMM:   2    -0.885681612605E+03   -0.46600E-04   -0.68473E-04  1460   0.384E-02
  29 F= -.90654778E+03 E0= -.90654778E+03  d E =-.242519E-03  mag=    -2.0000
