       N       E                     dE             d eps       ncg     rms          rms(c)
DAV:   1     0.159824080702E+05    0.15982E+05   -0.34626E+05  2432   0.147E+03
DAV:   2     0.570207060338E+04   -0.10280E+05   -0.89394E+04  2560   0.393E+02
DAV:   3     0.479857664532E+03   -0.52222E+04   -0.49309E+04  3040   0.258E+02
DAV:   4    -0.974182439769E+03   -0.14540E+04   -0.13449E+04  3408   0.133E+02
DAV:   5    -0.111310429715E+04   -0.13892E+03   -0.13757E+03  4080   0.539E+01    0.157E+02
RMM:   6    -0.912183612739E+03    0.20092E+03   -0.57508E+02  3328   0.285E+01    0.981E+01
RMM:   7    -0.990765671478E+03   -0.78582E+02   -0.10706E+03  3537   0.279E+01    0.154E+02
RMM:   8    -0.953190270644E+03    0.37575E+02   -0.25601E+02  3170   0.202E+01    0.135E+02
RMM:   9    -0.967962779294E+03   -0.14773E+02   -0.22089E+02  3285   0.193E+01    0.139E+02
RMM:  10    -0.904632909694E+03    0.63330E+02   -0.85642E+01  3328   0.124E+01    0.596E+01
RMM:  11    -0.915563691208E+03   -0.10931E+02   -0.67719E+01  3378   0.104E+01    0.517E+01
RMM:  12    -0.925232287579E+03   -0.96686E+01   -0.62935E+01  3395   0.105E+01    0.364E+01
RMM:  13    -0.920141014044E+03    0.50913E+01   -0.13153E+01  3436   0.549E+00    0.256E+01
RMM:  14    -0.910767003182E+03    0.93740E+01   -0.88451E+00  3401   0.405E+00    0.206E+01
RMM:  15    -0.904524482974E+03    0.62425E+01   -0.12302E+01  3408   0.465E+00    0.162E+01
RMM:  16    -0.902729463294E+03    0.17950E+01   -0.65939E+00  3487   0.333E+00    0.138E+01
RMM:  17    -0.901493100781E+03    0.12364E+01   -0.35095E+00  3672   0.213E+00    0.127E+01
RMM:  18    -0.900691203420E+03    0.80190E+00   -0.15122E+00  3511   0.164E+00    0.121E+01
RMM:  19    -0.900240733825E+03    0.45047E+00   -0.92992E-01  3880   0.109E+00    0.117E+01
RMM:  20    -0.900710809738E+03   -0.47008E+00   -0.41254E-01  3620   0.925E-01    0.118E+01
RMM:  21    -0.900717407637E+03   -0.65979E-02   -0.23017E-01  4040   0.525E-01    0.118E+01
RMM:  22    -0.900628054018E+03    0.89354E-01   -0.13589E-01  3987   0.474E-01    0.118E+01
RMM:  23    -0.900523446645E+03    0.10461E+00   -0.97711E-02  4019   0.368E-01    0.118E+01
RMM:  24    -0.900940702265E+03   -0.41726E+00   -0.39982E-01  3331   0.763E-01    0.118E+01
RMM:  25    -0.899647446137E+03    0.12933E+01   -0.16926E+00  3275   0.152E+00    0.118E+01
RMM:  26    -0.898013049162E+03    0.16344E+01   -0.22960E+00  3337   0.161E+00    0.125E+01
RMM:  27    -0.897117451143E+03    0.89560E+00   -0.13665E+00  3300   0.137E+00    0.112E+01
RMM:  28    -0.897385872707E+03   -0.26842E+00   -0.15733E+00  3281   0.130E+00    0.883E+00
RMM:  29    -0.896794562932E+03    0.59131E+00   -0.86956E-01  3221   0.128E+00    0.857E+00
RMM:  30    -0.896714790822E+03    0.79772E-01   -0.35317E-01  3375   0.529E-01    0.796E+00
RMM:  31    -0.896253357157E+03    0.46143E+00   -0.73015E-01  3076   0.106E+00    0.784E+00
RMM:  32    -0.896306909427E+03   -0.53552E-01   -0.22616E-01  3455   0.334E-01    0.711E+00
RMM:  33    -0.896238168637E+03    0.68741E-01   -0.11256E-01  3255   0.358E-01    0.663E+00
RMM:  34    -0.896230842545E+03    0.73261E-02   -0.64385E-02  3274   0.268E-01    0.627E+00
RMM:  35    -0.896065218239E+03    0.16562E+00   -0.15500E-01  2976   0.533E-01    0.609E+00
RMM:  36    -0.896017600724E+03    0.47618E-01   -0.11406E-01  3236   0.244E-01    0.552E+00
RMM:  37    -0.895965560003E+03    0.52041E-01   -0.35945E-02  3247   0.189E-01    0.504E+00
RMM:  38    -0.895897173154E+03    0.68387E-01   -0.46716E-02  3193   0.226E-01    0.471E+00
RMM:  39    -0.895828145091E+03    0.69028E-01   -0.49304E-02  3231   0.220E-01    0.418E+00
RMM:  40    -0.895758950249E+03    0.69195E-01   -0.74144E-02  3265   0.281E-01    0.362E+00
RMM:  41    -0.895742441593E+03    0.16509E-01   -0.26112E-02  3123   0.165E-01    0.322E+00
RMM:  42    -0.895714833336E+03    0.27608E-01   -0.16566E-01  2905   0.491E-01    0.353E+00
RMM:  43    -0.895727594604E+03   -0.12761E-01   -0.61744E-02  2745   0.144E-01    0.356E+00
RMM:  44    -0.895741918798E+03   -0.14324E-01   -0.14344E-02  2864   0.119E-01    0.376E+00
RMM:  45    -0.895760235959E+03   -0.18317E-01   -0.12814E-02  2991   0.111E-01    0.404E+00
RMM:  46    -0.895748276413E+03    0.11960E-01   -0.28165E-03  2123   0.769E-02    0.390E+00
RMM:  47    -0.895735696003E+03    0.12580E-01   -0.66307E-03  2708   0.779E-02    0.372E+00
RMM:  48    -0.895710348590E+03    0.25347E-01   -0.20136E-02  3020   0.168E-01    0.334E+00
RMM:  49    -0.895700906953E+03    0.94416E-02   -0.16693E-02  2952   0.121E-01    0.318E+00
RMM:  50    -0.895688889412E+03    0.12018E-01   -0.68113E-03  2987   0.906E-02    0.301E+00
RMM:  51    -0.895615128039E+03    0.73761E-01   -0.87504E-01  3182   0.116E+00    0.168E+00
RMM:  52    -0.895646351436E+03   -0.31223E-01   -0.16780E-01  3287   0.250E-01    0.185E+00
RMM:  53    -0.895659079581E+03   -0.12728E-01   -0.13497E-02  2941   0.108E-01    0.193E+00
RMM:  54    -0.895668568148E+03   -0.94886E-02   -0.80551E-03  3093   0.937E-02    0.199E+00
RMM:  55    -0.895673507846E+03   -0.49397E-02   -0.12203E-02  3084   0.120E-01    0.212E+00
RMM:  56    -0.895710391290E+03   -0.36883E-01   -0.38412E-02  3178   0.193E-01    0.256E+00
RMM:  57    -0.895716015786E+03   -0.56245E-02   -0.60295E-03  2625   0.672E-02    0.268E+00
RMM:  58    -0.895742112342E+03   -0.26097E-01   -0.89104E-03  2837   0.991E-02    0.288E+00
RMM:  59    -0.895758176131E+03   -0.16064E-01   -0.60199E-03  2706   0.699E-02    0.304E+00
RMM:  60    -0.895755493384E+03    0.26827E-02   -0.48001E-04  1681   0.322E-02    0.304E+00
RMM:  61    -0.895742173712E+03    0.13320E-01   -0.59224E-03  2629   0.789E-02    0.283E+00
RMM:  62    -0.895742531068E+03   -0.35736E-03   -0.72211E-04  1736   0.376E-02    0.283E+00
RMM:  63    -0.895740491249E+03    0.20398E-02   -0.17623E-04  1588   0.251E-02    0.282E+00
RMM:  64    -0.895735366999E+03    0.51243E-02   -0.59556E-04  1945   0.316E-02    0.277E+00
RMM:  65    -0.895712575053E+03    0.22792E-01   -0.67709E-03  2766   0.859E-02    0.243E+00
RMM:  66    -0.895717954194E+03   -0.53791E-02   -0.57808E-03  2671   0.813E-02    0.253E+00
RMM:  67    -0.895720226495E+03   -0.22723E-02   -0.16564E-03  1676   0.343E-02    0.254E+00
RMM:  68    -0.895720004461E+03    0.22203E-03   -0.65696E-04  1596   0.266E-02    0.256E+00
RMM:  69    -0.895723346136E+03   -0.33417E-02   -0.51524E-04  1736   0.285E-02    0.265E+00
RMM:  70    -0.895724882140E+03   -0.15360E-02   -0.64576E-04  1984   0.317E-02    0.272E+00
RMM:  71    -0.895750107584E+03   -0.25225E-01   -0.54103E-03  2765   0.927E-02    0.285E+00
RMM:  72    -0.895759292547E+03   -0.91850E-02   -0.45704E-03  2649   0.726E-02    0.295E+00
RMM:  73    -0.895754321153E+03    0.49714E-02   -0.22072E-04  1612   0.317E-02    0.291E+00
RMM:  74    -0.895744291620E+03    0.10030E-01   -0.22954E-03  2371   0.487E-02    0.279E+00
RMM:  75    -0.895721903572E+03    0.22388E-01   -0.80878E-03  2853   0.915E-02    0.253E+00
RMM:  76    -0.895726018996E+03   -0.41154E-02   -0.76612E-04  2029   0.529E-02    0.258E+00
RMM:  77    -0.895735289807E+03   -0.92708E-02   -0.12211E-03  2243   0.402E-02    0.267E+00
RMM:  78    -0.895739652778E+03   -0.43630E-02   -0.21025E-04  1641   0.278E-02    0.270E+00
RMM:  79    -0.895739089833E+03    0.56294E-03   -0.74935E-05  1537   0.197E-02    0.270E+00
RMM:  80    -0.895735113519E+03    0.39763E-02   -0.52092E-05  1540   0.166E-02    0.268E+00
RMM:  81    -0.895741992347E+03   -0.68788E-02   -0.41282E-04  1765   0.274E-02    0.274E+00
RMM:  82    -0.895734073252E+03    0.79191E-02   -0.29421E-04  1733   0.343E-02    0.269E+00
RMM:  83    -0.895732490375E+03    0.15829E-02   -0.21047E-04  1663   0.187E-02    0.267E+00
RMM:  84    -0.895729385398E+03    0.31050E-02   -0.25023E-04  1697   0.262E-02    0.265E+00
RMM:  85    -0.895729223300E+03    0.16210E-03   -0.34167E-04  1753   0.234E-02    0.266E+00
RMM:  86    -0.896193368824E+03   -0.46415E+00   -0.55613E-01  3242   0.703E-01    0.122E+01
RMM:  87    -0.896115925115E+03    0.77444E-01   -0.11836E-01  2978   0.267E-01    0.114E+01
RMM:  88    -0.896063076109E+03    0.52849E-01   -0.12725E-02  2728   0.112E-01    0.117E+01
RMM:  89    -0.896066855960E+03   -0.37799E-02   -0.41514E-03  2488   0.481E-02    0.120E+01
RMM:  90    -0.896062399487E+03    0.44565E-02   -0.86147E-04  1773   0.278E-02    0.118E+01
RMM:  91    -0.896098322800E+03   -0.35923E-01   -0.55617E-03  2633   0.892E-02    0.110E+01
RMM:  92    -0.896099963159E+03   -0.16404E-02   -0.12785E-03  2105   0.506E-02    0.109E+01
RMM:  93    -0.896098765073E+03    0.11981E-02   -0.23679E-04  1607   0.279E-02    0.109E+01
RMM:  94    -0.896099500548E+03   -0.73547E-03   -0.10655E-04  1558   0.253E-02    0.109E+01
RMM:  95    -0.896109845297E+03   -0.10345E-01   -0.13592E-03  2171   0.386E-02    0.109E+01
RMM:  96    -0.896094635918E+03    0.15209E-01   -0.18910E-02  3035   0.140E-01    0.104E+01
RMM:  97    -0.896115096113E+03   -0.20460E-01   -0.21719E-03  2498   0.575E-02    0.103E+01
RMM:  98    -0.896118211892E+03   -0.31158E-02   -0.33407E-04  1649   0.255E-02    0.103E+01
RMM:  99    -0.896118963897E+03   -0.75200E-03   -0.10745E-04  1546   0.205E-02    0.103E+01
RMM: 100    -0.896112702688E+03    0.62612E-02   -0.58579E-04  1928   0.384E-02
   1 F= -.91713836E+03 E0= -.91713813E+03  d E =-.917138E+03  mag=     0.0228
       N       E                     dE             d eps       ncg     rms          rms(c)
DAV:   1    -0.896726507653E+03   -0.60754E+00   -0.61213E+01  2848   0.733E+00    0.127E+01
RMM:   2    -0.898298689095E+03   -0.15722E+01   -0.11036E+01  3275   0.336E+00    0.115E+01
RMM:   3    -0.897041436319E+03    0.12573E+01   -0.10262E+00  3008   0.143E+00    0.734E+00
RMM:   4    -0.896998620593E+03    0.42816E-01   -0.30116E+00  3205   0.161E+00    0.993E+00
RMM:   5    -0.897002424709E+03   -0.38041E-02   -0.28892E-01  3392   0.411E-01    0.959E+00
RMM:   6    -0.896578775074E+03    0.42365E+00   -0.35230E-01  3230   0.560E-01    0.798E+00
RMM:   7    -0.896547311006E+03    0.31464E-01   -0.20506E-01  3220   0.361E-01    0.687E+00
RMM:   8    -0.896544078302E+03    0.32327E-02   -0.20422E-01  3196   0.426E-01    0.502E+00
RMM:   9    -0.896562331642E+03   -0.18253E-01   -0.15802E-01  3209   0.344E-01    0.608E+00
RMM:  10    -0.896541152476E+03    0.21179E-01   -0.58691E-02  2918   0.357E-01    0.216E+00
RMM:  11    -0.896571463677E+03   -0.30311E-01   -0.29991E-02  3045   0.182E-01    0.389E+00
RMM:  12    -0.896553037826E+03    0.18426E-01   -0.11598E-02  2693   0.144E-01    0.187E+00
RMM:  13    -0.896561627796E+03   -0.85900E-02   -0.13135E-02  2905   0.128E-01    0.159E+00
RMM:  14    -0.896568003771E+03   -0.63760E-02   -0.90893E-03  2606   0.122E-01    0.260E-01
RMM:  15    -0.896572470840E+03   -0.44671E-02   -0.62167E-03  2478   0.886E-02    0.480E-01
RMM:  16    -0.896574885114E+03   -0.24143E-02   -0.52242E-03  2528   0.697E-02    0.610E-01
RMM:  17    -0.896575385702E+03   -0.50059E-03   -0.26029E-03  2127   0.468E-02    0.385E-01
RMM:  18    -0.896577391219E+03   -0.20055E-02   -0.37413E-03  2207   0.579E-02    0.470E-01
RMM:  19    -0.896580785461E+03   -0.33942E-02   -0.13247E-02  2452   0.831E-02    0.127E+00
RMM:  20    -0.896577299854E+03    0.34856E-02   -0.45787E-03  1950   0.717E-02    0.145E+00
RMM:  21    -0.896576284048E+03    0.10158E-02   -0.21877E-03  1696   0.331E-02    0.147E+00
RMM:  22    -0.896574350473E+03    0.19336E-02   -0.54949E-03  1770   0.586E-02    0.156E+00
RMM:  23    -0.896571835067E+03    0.25154E-02   -0.77380E-03  1996   0.529E-02    0.127E+00
RMM:  24    -0.896568347540E+03    0.34875E-02   -0.29085E-02  2374   0.105E-01    0.110E+00
RMM:  25    -0.896569785985E+03   -0.14384E-02   -0.15156E-03  1717   0.361E-02    0.112E+00
RMM:  26    -0.896569528530E+03    0.25745E-03   -0.63155E-04  1585   0.331E-02    0.128E+00
RMM:  27    -0.896572217824E+03   -0.26893E-02   -0.40269E-02  2169   0.141E-01    0.122E+00
RMM:  28    -0.896576097641E+03   -0.38798E-02   -0.36627E-02  2208   0.629E-02    0.151E+00
RMM:  29    -0.896578021790E+03   -0.19241E-02   -0.28430E-02  2275   0.107E-01    0.152E+00
RMM:  30    -0.896580066155E+03   -0.20444E-02   -0.58182E-02  2737   0.141E-01    0.138E+00
RMM:  31    -0.896583321538E+03   -0.32554E-02   -0.44222E-02  2581   0.132E-01    0.203E+00
RMM:  32    -0.896581792907E+03    0.15286E-02   -0.24671E-03  1853   0.480E-02    0.204E+00
RMM:  33    -0.896581227590E+03    0.56532E-03   -0.45229E-04  1519   0.285E-02    0.205E+00
RMM:  34    -0.896579797185E+03    0.14304E-02   -0.15750E-03  1606   0.373E-02    0.175E+00
RMM:  35    -0.896577735128E+03    0.20621E-02   -0.30762E-02  2229   0.960E-02    0.667E-01
RMM:  36    -0.896581724344E+03   -0.39892E-02   -0.24907E-03  2014   0.518E-02    0.553E-01
RMM:  37    -0.896583003685E+03   -0.12793E-02   -0.13424E-03  1634   0.436E-02    0.567E-01
RMM:  38    -0.896582762145E+03    0.24154E-03   -0.27956E-04  1578   0.277E-02    0.257E-01
RMM:  39    -0.896584197631E+03   -0.14355E-02   -0.42669E-03  1751   0.559E-02    0.220E-01
RMM:  40    -0.896584873998E+03   -0.67637E-03   -0.61479E-03  1855   0.503E-02    0.345E-01
RMM:  41    -0.896583946817E+03    0.92718E-03   -0.29931E-03  1628   0.507E-02    0.294E-01
RMM:  42    -0.896583930245E+03    0.16572E-04   -0.24835E-03  1602   0.207E-02    0.348E-01
RMM:  43    -0.896583890658E+03    0.39587E-04   -0.59994E-05  1470   0.158E-02
   2 F= -.91760469E+03 E0= -.91759130E+03  d E =-.466331E+00  mag=     0.0000
       N       E                     dE             d eps       ncg     rms          rms(c)
DAV:   1    -0.896598788379E+03   -0.14858E-01   -0.15496E+00  2896   0.120E+00    0.955E-01
RMM:   2    -0.896653630191E+03   -0.54842E-01   -0.85958E-02  3108   0.402E-01    0.643E+00
RMM:   3    -0.896576588936E+03    0.77041E-01   -0.25020E-02  2764   0.271E-01    0.142E+00
RMM:   4    -0.896600104929E+03   -0.23516E-01   -0.16032E-02  2934   0.137E-01    0.197E+00
RMM:   5    -0.896601061141E+03   -0.95621E-03   -0.31046E-03  2270   0.107E-01    0.609E-01
RMM:   6    -0.896602151123E+03   -0.10900E-02   -0.25135E-03  2093   0.610E-02    0.218E-01
RMM:   7    -0.896603479457E+03   -0.13283E-02   -0.33443E-03  2103   0.570E-02    0.322E-01
RMM:   8    -0.896603772235E+03   -0.29278E-03   -0.81996E-04  1654   0.365E-02    0.384E-01
RMM:   9    -0.896603782425E+03   -0.10190E-04   -0.68255E-04  1618   0.317E-02
   3 F= -.91762392E+03 E0= -.91761036E+03  d E =-.485560E+00  mag=    -0.0000
       N       E                     dE             d eps       ncg     rms          rms(c)
DAV:   1    -0.896899647002E+03   -0.29587E+00   -0.26295E+01  2560   0.497E+00    0.487E+00
RMM:   2    -0.897393789895E+03   -0.49414E+00   -0.19015E+00  3159   0.188E+00    0.963E+00
RMM:   3    -0.897024281779E+03    0.36951E+00   -0.27989E-01  2880   0.913E-01    0.749E+00
RMM:   4    -0.896946274146E+03    0.78008E-01   -0.43420E-01  3180   0.710E-01    0.528E+00
RMM:   5    -0.896949088790E+03   -0.28146E-02   -0.45567E-02  3167   0.299E-01    0.442E+00
RMM:   6    -0.896919905857E+03    0.29183E-01   -0.28130E-02  3099   0.211E-01    0.315E+00
RMM:   7    -0.896929407791E+03   -0.95019E-02   -0.20592E-02  2772   0.219E-01    0.122E+00
RMM:   8    -0.896934945103E+03   -0.55373E-02   -0.64341E-03  2978   0.107E-01    0.208E+00
RMM:   9    -0.896930755444E+03    0.41897E-02   -0.24289E-03  2437   0.803E-02    0.164E+00
RMM:  10    -0.896928949414E+03    0.18060E-02   -0.11009E-03  2174   0.578E-02    0.555E-01
RMM:  11    -0.896933429676E+03   -0.44803E-02   -0.13418E-03  2151   0.592E-02    0.176E+00
RMM:  12    -0.896929273545E+03    0.41561E-02   -0.13399E-03  2093   0.566E-02    0.586E-01
RMM:  13    -0.896931793244E+03   -0.25197E-02   -0.12419E-03  2174   0.580E-02    0.400E-01
RMM:  14    -0.896933022799E+03   -0.12296E-02   -0.55119E-04  1814   0.480E-02    0.703E-02
RMM:  15    -0.896933115659E+03   -0.92860E-04   -0.14162E-04  1503   0.303E-02
   4 F= -.91795089E+03 E0= -.91793690E+03  d E =-.326973E+00  mag=    -0.0007
       N       E                     dE             d eps       ncg     rms          rms(c)
DAV:   1    -0.896986805305E+03   -0.53783E-01   -0.12960E+01  2560   0.345E+00    0.385E+00
RMM:   2    -0.897355033227E+03   -0.36823E+00   -0.10795E+00  3135   0.142E+00    0.900E+00
RMM:   3    -0.897058555078E+03    0.29648E+00   -0.17151E-01  2880   0.714E-01    0.722E+00
RMM:   4    -0.896993572444E+03    0.64983E-01   -0.23756E-01  3130   0.531E-01    0.502E+00
RMM:   5    -0.897015165349E+03   -0.21593E-01   -0.32865E-02  3056   0.260E-01    0.397E+00
RMM:   6    -0.896995763375E+03    0.19402E-01   -0.15998E-02  2971   0.171E-01    0.272E+00
RMM:   7    -0.897006367831E+03   -0.10604E-01   -0.13987E-02  2684   0.187E-01    0.858E-01
RMM:   8    -0.897009445830E+03   -0.30780E-02   -0.30468E-03  2625   0.807E-02    0.126E+00
RMM:   9    -0.897008222780E+03    0.12230E-02   -0.13226E-03  2177   0.581E-02    0.137E+00
RMM:  10    -0.897006319927E+03    0.19029E-02   -0.58684E-04  1854   0.478E-02    0.593E-01
RMM:  11    -0.897008080576E+03   -0.17606E-02   -0.42625E-04  1714   0.387E-02    0.888E-01
RMM:  12    -0.897007435707E+03    0.64487E-03   -0.75270E-04  1937   0.460E-02    0.153E-01
RMM:  13    -0.897008984317E+03   -0.15486E-02   -0.46097E-04  1795   0.422E-02    0.537E-02
RMM:  14    -0.897009024035E+03   -0.39718E-04   -0.13792E-04  1485   0.296E-02
   5 F= -.91802515E+03 E0= -.91801114E+03  d E =-.401229E+00  mag=     0.0000
       N       E                     dE             d eps       ncg     rms          rms(c)
DAV:   1    -0.897095258527E+03   -0.86274E-01   -0.16358E+01  2496   0.398E+00    0.335E+00
RMM:   2    -0.897399619242E+03   -0.30436E+00   -0.90625E-01  3086   0.139E+00    0.865E+00
RMM:   3    -0.897152862824E+03    0.24676E+00   -0.14164E-01  2895   0.635E-01    0.700E+00
RMM:   4    -0.897121488606E+03    0.31374E-01   -0.20624E-01  3146   0.496E-01    0.547E+00
RMM:   5    -0.897145207686E+03   -0.23719E-01   -0.36578E-02  3119   0.257E-01    0.505E+00
RMM:   6    -0.897110603332E+03    0.34604E-01   -0.24469E-02  2924   0.217E-01    0.345E+00
RMM:   7    -0.897126522310E+03   -0.15919E-01   -0.17803E-02  2676   0.223E-01    0.108E+00
RMM:   8    -0.897131072444E+03   -0.45501E-02   -0.44095E-03  2740   0.948E-02    0.140E+00
RMM:   9    -0.897129027090E+03    0.20454E-02   -0.16924E-03  2264   0.647E-02    0.102E+00
RMM:  10    -0.897128547609E+03    0.47948E-03   -0.75996E-04  1937   0.449E-02    0.484E-01
RMM:  11    -0.897130048781E+03   -0.15012E-02   -0.44764E-04  1744   0.369E-02    0.750E-01
RMM:  12    -0.897129454819E+03    0.59396E-03   -0.32654E-04  1630   0.357E-02    0.145E-01
RMM:  13    -0.897130487415E+03   -0.10326E-02   -0.22009E-04  1574   0.333E-02    0.314E-01
RMM:  14    -0.897130444358E+03    0.43057E-04   -0.20459E-04  1520   0.304E-02
   6 F= -.91814439E+03 E0= -.91813051E+03  d E =-.119239E+00  mag=     0.0000
       N       E                     dE             d eps       ncg     rms          rms(c)
DAV:   1    -0.897140626409E+03   -0.10139E-01   -0.39578E+00  2496   0.194E+00    0.183E+00
RMM:   2    -0.897270820990E+03   -0.13019E+00   -0.25077E-01  3022   0.735E-01    0.729E+00
RMM:   3    -0.897130012910E+03    0.14081E+00   -0.51936E-02  2825   0.389E-01    0.455E+00
RMM:   4    -0.897136650549E+03   -0.66376E-02   -0.54770E-02  3111   0.245E-01    0.389E+00
RMM:   5    -0.897149208147E+03   -0.12558E-01   -0.10880E-02  2804   0.175E-01    0.342E+00
RMM:   6    -0.897138502211E+03    0.10706E-01   -0.85483E-03  2621   0.146E-01    0.268E+00
RMM:   7    -0.897145634499E+03   -0.71323E-02   -0.65693E-03  2475   0.151E-01    0.199E-01
RMM:   8    -0.897148742728E+03   -0.31082E-02   -0.11981E-03  2135   0.575E-02    0.423E-01
RMM:   9    -0.897148688118E+03    0.54610E-04   -0.33900E-04  1646   0.316E-02
   7 F= -.91816158E+03 E0= -.91814783E+03  d E =-.136427E+00  mag=     0.0000
       N       E                     dE             d eps       ncg     rms          rms(c)
DAV:   1    -0.897238218279E+03   -0.89476E-01   -0.12795E+01  2496   0.372E+00    0.359E+00
RMM:   2    -0.897598564602E+03   -0.36035E+00   -0.11529E+00  3161   0.144E+00    0.890E+00
RMM:   3    -0.897261043483E+03    0.33752E+00   -0.22289E-01  2863   0.763E-01    0.646E+00
RMM:   4    -0.897226857812E+03    0.34186E-01   -0.96844E-02  3353   0.258E-01    0.322E+00
RMM:   5    -0.897243156657E+03   -0.16299E-01   -0.28681E-02  3285   0.166E-01    0.101E+00
RMM:   6    -0.897270186954E+03   -0.27030E-01   -0.13139E-02  3010   0.142E-01    0.361E+00
RMM:   7    -0.897249854185E+03    0.20333E-01   -0.20547E-02  2704   0.232E-01    0.119E+00
RMM:   8    -0.897255693812E+03   -0.58396E-02   -0.32513E-03  2642   0.675E-02    0.272E-01
RMM:   9    -0.897259658600E+03   -0.39648E-02   -0.23894E-03  2303   0.808E-02    0.659E-01
RMM:  10    -0.897259583489E+03    0.75111E-04   -0.81034E-04  1974   0.410E-02
   8 F= -.91827163E+03 E0= -.91825848E+03  d E =-.110057E+00  mag=     0.0000
       N       E                     dE             d eps       ncg     rms          rms(c)
DAV:   1    -0.897160884241E+03    0.98774E-01   -0.82596E+01  2432   0.952E+00    0.579E+00
RMM:   2    -0.897964863084E+03   -0.80398E+00   -0.44842E+00  3115   0.299E+00    0.112E+01
RMM:   3    -0.897333939536E+03    0.63092E+00   -0.70354E-01  2956   0.131E+00    0.827E+00
RMM:   4    -0.897284514531E+03    0.49425E-01   -0.31411E-01  3533   0.425E-01    0.365E+00
RMM:   5    -0.897312399594E+03   -0.27885E-01   -0.54504E-02  3462   0.249E-01    0.382E+00
RMM:   6    -0.897320680770E+03   -0.82812E-02   -0.12690E-01  3282   0.364E-01    0.330E+00
RMM:   7    -0.897347337792E+03   -0.26657E-01   -0.27620E-02  3330   0.197E-01    0.461E+00
RMM:   8    -0.897323650783E+03    0.23687E-01   -0.32762E-02  2894   0.248E-01    0.397E+00
RMM:   9    -0.897312320072E+03    0.11331E-01   -0.27804E-02  3238   0.157E-01    0.283E+00
RMM:  10    -0.897319229873E+03   -0.69098E-02   -0.31417E-03  2919   0.600E-02    0.287E+00
RMM:  11    -0.897318367168E+03    0.86270E-03   -0.10831E-02  2780   0.147E-01    0.226E+00
RMM:  12    -0.897319567791E+03   -0.12006E-02   -0.47899E-03  2732   0.595E-02    0.189E+00
RMM:  13    -0.897320792613E+03   -0.12248E-02   -0.28416E-03  2634   0.660E-02    0.157E+00
RMM:  14    -0.897321508833E+03   -0.71622E-03   -0.25087E-03  2655   0.595E-02    0.108E+00
RMM:  15    -0.897322316040E+03   -0.80721E-03   -0.70107E-04  1983   0.451E-02    0.423E-01
RMM:  16    -0.897324136853E+03   -0.18208E-02   -0.55475E-04  1793   0.468E-02    0.185E-01
RMM:  17    -0.897324790580E+03   -0.65373E-03   -0.37514E-04  1685   0.397E-02    0.121E-01
RMM:  18    -0.897325041620E+03   -0.25104E-03   -0.65045E-04  1824   0.444E-02    0.128E-01
RMM:  19    -0.897325153414E+03   -0.11179E-03   -0.16020E-03  2180   0.554E-02    0.152E-01
RMM:  20    -0.897325224212E+03   -0.70798E-04   -0.47065E-04  1748   0.359E-02
   9 F= -.91833525E+03 E0= -.91832281E+03  d E =-.173668E+00  mag=     0.0000
       N       E                     dE             d eps       ncg     rms          rms(c)
DAV:   1    -0.897325177268E+03   -0.23854E-04   -0.66459E+00  2560   0.274E+00    0.214E+00
RMM:   2    -0.897464776699E+03   -0.13960E+00   -0.48674E-01  3052   0.979E-01    0.571E+00
RMM:   3    -0.897328155410E+03    0.13662E+00   -0.81096E-02  2834   0.475E-01    0.335E+00
RMM:   4    -0.897323978859E+03    0.41766E-02   -0.30030E-02  3205   0.141E-01    0.121E+00
RMM:   5    -0.897333827197E+03   -0.98483E-02   -0.56724E-03  2571   0.102E-01    0.102E+00
RMM:   6    -0.897336241580E+03   -0.24144E-02   -0.77313E-03  2839   0.939E-02    0.825E-01
RMM:   7    -0.897343308279E+03   -0.70667E-02   -0.27671E-03  2451   0.752E-02    0.307E+00
RMM:   8    -0.897333512042E+03    0.97962E-02   -0.20427E-03  2106   0.830E-02    0.318E+00
RMM:   9    -0.897323938892E+03    0.95731E-02   -0.56257E-03  2526   0.110E-01    0.698E-01
RMM:  10    -0.897337558505E+03   -0.13620E-01   -0.22085E-03  2170   0.775E-02    0.185E+00
RMM:  11    -0.897334803095E+03    0.27554E-02   -0.34475E-04  1665   0.382E-02    0.186E+00
RMM:  12    -0.897332539884E+03    0.22632E-02   -0.61483E-04  1797   0.381E-02    0.816E-01
RMM:  13    -0.897336297601E+03   -0.37577E-02   -0.10440E-03  2024   0.451E-02    0.182E-01
RMM:  14    -0.897337933757E+03   -0.16362E-02   -0.49890E-04  1770   0.420E-02    0.104E-01
RMM:  15    -0.897338292307E+03   -0.35855E-03   -0.16158E-04  1519   0.319E-02    0.115E-01
RMM:  16    -0.897338255672E+03    0.36635E-04   -0.81319E-05  1453   0.202E-02
  10 F= -.91834890E+03 E0= -.91833573E+03  d E =-.187325E+00  mag=    -0.0000
       N       E                     dE             d eps       ncg     rms          rms(c)
DAV:   1    -0.897393538607E+03   -0.55246E-01   -0.37298E+00  2496   0.208E+00    0.148E+00
RMM:   2    -0.897510649541E+03   -0.11711E+00   -0.24866E-01  3042   0.718E-01    0.847E+00
RMM:   3    -0.897357942187E+03    0.15271E+00   -0.60357E-02  2802   0.418E-01    0.158E+00
RMM:   4    -0.897393003135E+03   -0.35061E-01   -0.22526E-02  3006   0.145E-01    0.168E+00
RMM:   5    -0.897400456529E+03   -0.74534E-02   -0.81057E-03  2461   0.167E-01    0.182E+00
RMM:   6    -0.897397813983E+03    0.26425E-02   -0.31829E-03  2424   0.888E-02    0.862E-01
RMM:   7    -0.897398600351E+03   -0.78637E-03   -0.16163E-03  2283   0.545E-02    0.356E-01
RMM:   8    -0.897400276185E+03   -0.16758E-02   -0.82403E-04  1909   0.544E-02    0.380E-01
RMM:   9    -0.897400097316E+03    0.17887E-03   -0.37499E-04  1682   0.370E-02    0.343E-01
RMM:  10    -0.897400088034E+03    0.92816E-05   -0.12920E-04  1422   0.249E-02
  11 F= -.91841028E+03 E0= -.91839783E+03  d E =-.613752E-01  mag=    -0.0000
       N       E                     dE             d eps       ncg     rms          rms(c)
DAV:   1    -0.897419886890E+03   -0.19790E-01   -0.33517E+01  2432   0.626E+00    0.393E+00
RMM:   2    -0.897905189081E+03   -0.48530E+00   -0.20972E+00  3070   0.206E+00    0.107E+01
RMM:   3    -0.897437649201E+03    0.46754E+00   -0.40751E-01  2905   0.102E+00    0.311E+00
RMM:   4    -0.897481304878E+03   -0.43656E-01   -0.17364E-01  3500   0.301E-01    0.300E+00
RMM:   5    -0.897482928195E+03   -0.16233E-02   -0.33549E-02  2932   0.294E-01    0.103E+00
RMM:   6    -0.897486538994E+03   -0.36108E-02   -0.24229E-02  3378   0.151E-01    0.808E-01
RMM:   7    -0.897491074862E+03   -0.45359E-02   -0.12343E-02  3251   0.116E-01    0.200E+00
RMM:   8    -0.897491262234E+03   -0.18737E-03   -0.55117E-03  2743   0.117E-01    0.236E+00
RMM:   9    -0.897487243873E+03    0.40184E-02   -0.63332E-03  2869   0.973E-02    0.218E+00
RMM:  10    -0.897487493225E+03   -0.24935E-03   -0.20143E-03  2605   0.509E-02    0.218E+00
RMM:  11    -0.897488728618E+03   -0.12354E-02   -0.29088E-03  2464   0.808E-02    0.222E+00
RMM:  12    -0.897489125066E+03   -0.39645E-03   -0.76990E-03  2753   0.104E-01    0.211E+00
RMM:  13    -0.897489003593E+03    0.12147E-03   -0.17937E-03  2346   0.500E-02    0.205E+00
RMM:  14    -0.897489499205E+03   -0.49561E-03   -0.15500E-03  2278   0.591E-02    0.200E+00
RMM:  15    -0.897488751374E+03    0.74783E-03   -0.11993E-02  2711   0.157E-01    0.156E+00
RMM:  16    -0.897489554961E+03   -0.80359E-03   -0.85689E-03  2622   0.769E-02    0.128E+00
RMM:  17    -0.897491101268E+03   -0.15463E-02   -0.37562E-03  2507   0.868E-02    0.123E+00
RMM:  18    -0.897491558801E+03   -0.45753E-03   -0.10040E-02  2772   0.111E-01    0.102E+00
RMM:  19    -0.897492305689E+03   -0.74689E-03   -0.74139E-03  2725   0.104E-01    0.921E-01
RMM:  20    -0.897493297519E+03   -0.99183E-03   -0.97277E-03  2767   0.113E-01    0.891E-01
RMM:  21    -0.897494482310E+03   -0.11848E-02   -0.18110E-02  2802   0.162E-01    0.798E-01
RMM:  22    -0.897494421872E+03    0.60438E-04   -0.45613E-03  2385   0.497E-02    0.781E-01
RMM:  23    -0.897488484314E+03    0.59376E-02   -0.28817E-02  2588   0.248E-01    0.635E-01
RMM:  24    -0.897491748634E+03   -0.32643E-02   -0.77749E-03  2075   0.655E-02    0.558E-01
RMM:  25    -0.897493173729E+03   -0.14251E-02   -0.33841E-03  2146   0.984E-02    0.439E-01
RMM:  26    -0.897492778931E+03    0.39480E-03   -0.23078E-04  1639   0.396E-02    0.391E-01
RMM:  27    -0.897492413060E+03    0.36587E-03   -0.65282E-04  1801   0.412E-02    0.276E-01
RMM:  28    -0.897493247197E+03   -0.83414E-03   -0.34235E-04  1686   0.444E-02    0.357E-01
RMM:  29    -0.897493658779E+03   -0.41158E-03   -0.29706E-03  2285   0.687E-02    0.355E-01
RMM:  30    -0.897493835645E+03   -0.17687E-03   -0.20848E-03  2151   0.510E-02    0.331E-01
RMM:  31    -0.897493808919E+03    0.26726E-04   -0.23059E-04  1578   0.237E-02
  12 F= -.91850275E+03 E0= -.91849659E+03  d E =-.153851E+00  mag=    -0.0000
       N       E                     dE             d eps       ncg     rms          rms(c)
DAV:   1    -0.897569968940E+03   -0.76133E-01   -0.84224E+00  3008   0.309E+00    0.130E+00
RMM:   2    -0.897608782304E+03   -0.38813E-01   -0.32636E-01  3066   0.793E-01    0.403E+00
RMM:   3    -0.897588025387E+03    0.20757E-01   -0.70321E-02  2969   0.372E-01    0.140E+00
RMM:   4    -0.897600919853E+03   -0.12894E-01   -0.17050E-02  3104   0.137E-01    0.127E+00
RMM:   5    -0.897596598386E+03    0.43215E-02   -0.74119E-03  2733   0.119E-01    0.110E+00
RMM:   6    -0.897597636848E+03   -0.10385E-02   -0.52467E-03  2921   0.683E-02    0.103E+00
RMM:   7    -0.897604244757E+03   -0.66079E-02   -0.40863E-03  2768   0.805E-02    0.905E-01
RMM:   8    -0.897608104778E+03   -0.38600E-02   -0.68646E-03  2705   0.945E-02    0.752E-01
RMM:   9    -0.897610336601E+03   -0.22318E-02   -0.49247E-03  2481   0.759E-02    0.630E-01
RMM:  10    -0.897612715989E+03   -0.23794E-02   -0.45660E-03  2645   0.772E-02    0.478E-01
RMM:  11    -0.897613707593E+03   -0.99160E-03   -0.37569E-03  2575   0.660E-02    0.348E-01
RMM:  12    -0.897614396325E+03   -0.68873E-03   -0.29778E-03  2536   0.613E-02    0.225E-01
RMM:  13    -0.897614855894E+03   -0.45957E-03   -0.20267E-03  2330   0.512E-02    0.135E-01
RMM:  14    -0.897615063576E+03   -0.20768E-03   -0.62328E-04  1775   0.354E-02    0.986E-02
RMM:  15    -0.897615216338E+03   -0.15276E-03   -0.46396E-04  1719   0.320E-02    0.487E-02
RMM:  16    -0.897615231676E+03   -0.15338E-04   -0.20161E-04  1546   0.263E-02
  13 F= -.91862316E+03 E0= -.91862316E+03  d E =-.120402E+00  mag=    -0.0001
       N       E                     dE             d eps       ncg     rms          rms(c)
DAV:   1    -0.897611730428E+03    0.34859E-02   -0.75328E+01  2656   0.927E+00    0.216E+00
RMM:   2    -0.897784058810E+03   -0.17233E+00   -0.22738E+00  3030   0.220E+00    0.201E+00
RMM:   3    -0.897808532095E+03   -0.24473E-01   -0.34892E-01  3441   0.529E-01    0.172E+00
RMM:   4    -0.897804638623E+03    0.38935E-02   -0.80468E-02  3547   0.247E-01    0.154E+00
RMM:   5    -0.897812026185E+03   -0.73876E-02   -0.96149E-02  3413   0.226E-01    0.818E-01
RMM:   6    -0.897809714537E+03    0.23116E-02   -0.19290E-02  3348   0.132E-01    0.470E-01
RMM:   7    -0.897807075917E+03    0.26386E-02   -0.37254E-02  3397   0.137E-01    0.175E-01
RMM:   8    -0.897807191690E+03   -0.11577E-03   -0.52870E-03  3178   0.639E-02    0.160E-01
RMM:   9    -0.897807040339E+03    0.15135E-03   -0.19952E-03  2434   0.441E-02    0.109E-01
RMM:  10    -0.897807145572E+03   -0.10523E-03   -0.16773E-03  2421   0.410E-02    0.577E-02
RMM:  11    -0.897807221930E+03   -0.76359E-04   -0.71391E-04  1924   0.351E-02
  14 F= -.91881205E+03 E0= -.91881205E+03  d E =-.309300E+00  mag=     0.0000
       N       E                     dE             d eps       ncg     rms          rms(c)
DAV:   1    -0.897798164894E+03    0.89807E-02   -0.13041E+01  2752   0.387E+00    0.857E-01
RMM:   2    -0.897825565989E+03   -0.27401E-01   -0.36593E-01  2946   0.912E-01    0.852E-01
RMM:   3    -0.897829336974E+03   -0.37710E-02   -0.58604E-02  3455   0.215E-01    0.760E-01
RMM:   4    -0.897828930130E+03    0.40684E-03   -0.13898E-02  3463   0.969E-02    0.677E-01
RMM:   5    -0.897831794280E+03   -0.28641E-02   -0.23924E-02  3307   0.115E-01    0.356E-01
RMM:   6    -0.897830573592E+03    0.12207E-02   -0.52156E-03  3089   0.673E-02    0.196E-01
RMM:   7    -0.897830214859E+03    0.35873E-03   -0.78671E-03  3084   0.650E-02    0.823E-02
RMM:   8    -0.897830231740E+03   -0.16881E-04   -0.97193E-04  1999   0.333E-02
  15 F= -.91883379E+03 E0= -.91883379E+03  d E =-.331034E+00  mag=    -0.0000
       N       E                     dE             d eps       ncg     rms          rms(c)
DAV:   1    -0.897898663540E+03   -0.68449E-01   -0.11352E+01  2496   0.361E+00    0.796E-01
RMM:   2    -0.897923643524E+03   -0.24980E-01   -0.31856E-01  3031   0.865E-01    0.817E-01
RMM:   3    -0.897926961703E+03   -0.33182E-02   -0.47577E-02  3453   0.187E-01    0.722E-01
RMM:   4    -0.897926822753E+03    0.13895E-03   -0.11681E-02  3466   0.984E-02    0.622E-01
RMM:   5    -0.897928610101E+03   -0.17873E-02   -0.13229E-02  3263   0.996E-02    0.286E-01
RMM:   6    -0.897928205547E+03    0.40455E-03   -0.34452E-03  3014   0.605E-02    0.149E-01
RMM:   7    -0.897927851142E+03    0.35441E-03   -0.39961E-03  2920   0.541E-02    0.846E-02
RMM:   8    -0.897927849934E+03    0.12077E-05   -0.67990E-04  1896   0.289E-02
  16 F= -.91892957E+03 E0= -.91892957E+03  d E =-.957830E-01  mag=     0.0000
       N       E                     dE             d eps       ncg     rms          rms(c)
DAV:   1    -0.897963353584E+03   -0.35502E-01   -0.15869E+01  2560   0.427E+00    0.961E-01
RMM:   2    -0.897999738709E+03   -0.36385E-01   -0.45915E-01  3041   0.103E+00    0.995E-01
RMM:   3    -0.898004557126E+03   -0.48184E-02   -0.67354E-02  3477   0.220E-01    0.888E-01
RMM:   4    -0.898004211238E+03    0.34589E-03   -0.18033E-02  3476   0.121E-01    0.747E-01
RMM:   5    -0.898006846680E+03   -0.26354E-02   -0.18680E-02  3303   0.118E-01    0.367E-01
RMM:   6    -0.898006142501E+03    0.70418E-03   -0.51939E-03  3220   0.741E-02    0.189E-01
RMM:   7    -0.898005525560E+03    0.61694E-03   -0.55798E-03  3098   0.635E-02    0.105E-01
RMM:   8    -0.898005514867E+03    0.10693E-04   -0.10511E-03  2080   0.334E-02    0.823E-02
RMM:   9    -0.898005463469E+03    0.51398E-04   -0.48984E-04  1766   0.312E-02
  17 F= -.91900498E+03 E0= -.91900498E+03  d E =-.171189E+00  mag=     0.0000
       N       E                     dE             d eps       ncg     rms          rms(c)
DAV:   1    -0.897854562292E+03    0.15095E+00   -0.63630E+01  2432   0.861E+00    0.207E+00
RMM:   2    -0.898011570292E+03   -0.15701E+00   -0.19611E+00  3083   0.209E+00    0.221E+00
RMM:   3    -0.898030687792E+03   -0.19117E-01   -0.26977E-01  3500   0.429E-01    0.203E+00
RMM:   4    -0.898027940652E+03    0.27471E-02   -0.10518E-01  3538   0.298E-01    0.161E+00
RMM:   5    -0.898037030638E+03   -0.90900E-02   -0.72566E-02  3390   0.231E-01    0.958E-01
RMM:   6    -0.898035671074E+03    0.13596E-02   -0.22386E-02  3411   0.155E-01    0.558E-01
RMM:   7    -0.898029384232E+03    0.62868E-02   -0.33704E-02  3315   0.152E-01    0.272E-01
RMM:   8    -0.898029053930E+03    0.33030E-03   -0.63814E-03  3273   0.641E-02    0.198E-01
RMM:   9    -0.898028772300E+03    0.28163E-03   -0.26486E-03  2769   0.480E-02    0.149E-01
RMM:  10    -0.898028530393E+03    0.24191E-03   -0.35939E-03  2987   0.570E-02    0.574E-02
RMM:  11    -0.898028622765E+03   -0.92372E-04   -0.15936E-03  2398   0.421E-02    0.534E-02
RMM:  12    -0.898028636033E+03   -0.13268E-04   -0.44723E-04  1685   0.287E-02
  18 F= -.91902207E+03 E0= -.91902207E+03  d E =-.188278E+00  mag=    -0.0000
       N       E                     dE             d eps       ncg     rms          rms(c)
DAV:   1    -0.898010042677E+03    0.18580E-01   -0.12012E+01  2784   0.373E+00    0.914E-01
RMM:   2    -0.898037528739E+03   -0.27486E-01   -0.35669E-01  2959   0.916E-01    0.953E-01
RMM:   3    -0.898041324811E+03   -0.37961E-02   -0.51453E-02  3311   0.200E-01    0.897E-01
RMM:   4    -0.898040992298E+03    0.33251E-03   -0.18867E-02  3289   0.121E-01    0.731E-01
RMM:   5    -0.898046287915E+03   -0.52956E-02   -0.27214E-02  3085   0.132E-01    0.476E-01
RMM:   6    -0.898042192130E+03    0.40958E-02   -0.89576E-03  2958   0.903E-02    0.238E-01
RMM:   7    -0.898041368717E+03    0.82341E-03   -0.67227E-03  2819   0.657E-02    0.129E-01
RMM:   8    -0.898041353948E+03    0.14769E-04   -0.58440E-04  1803   0.315E-02
  19 F= -.91903673E+03 E0= -.91903673E+03  d E =-.202941E+00  mag=     0.0000
       N       E                     dE             d eps       ncg     rms          rms(c)
DAV:   1    -0.898080144606E+03   -0.38776E-01   -0.48810E+00  2624   0.229E+00    0.677E-01
RMM:   2    -0.898094450231E+03   -0.14306E-01   -0.17638E-01  3026   0.577E-01    0.542E-01
RMM:   3    -0.898094840578E+03   -0.39035E-03   -0.18988E-02  3328   0.124E-01    0.449E-01
RMM:   4    -0.898094015931E+03    0.82465E-03   -0.61273E-03  3276   0.780E-02    0.288E-01
RMM:   5    -0.898094106446E+03   -0.90516E-04   -0.29790E-03  2731   0.556E-02    0.105E-01
RMM:   6    -0.898094086039E+03    0.20407E-04   -0.86296E-04  2094   0.395E-02
  20 F= -.91908960E+03 E0= -.91908960E+03  d E =-.528741E-01  mag=    -0.0000
       N       E                     dE             d eps       ncg     rms          rms(c)
DAV:   1    -0.898096295924E+03   -0.21895E-02   -0.59053E-01  2880   0.795E-01    0.255E-01
RMM:   2    -0.898098323488E+03   -0.20276E-02   -0.24562E-02  3081   0.209E-01    0.194E-01
RMM:   3    -0.898098405015E+03   -0.81527E-04   -0.23846E-03  2661   0.449E-02    0.161E-01
RMM:   4    -0.898098401728E+03    0.32865E-05   -0.12350E-03  2235   0.423E-02    0.931E-02
RMM:   5    -0.898098458191E+03   -0.56463E-04   -0.33457E-04  1599   0.303E-02
  21 F= -.91909404E+03 E0= -.91909404E+03  d E =-.573155E-01  mag=    -0.0000
       N       E                     dE             d eps       ncg     rms          rms(c)
DAV:   1    -0.898130792470E+03   -0.32391E-01   -0.25523E+00  2464   0.178E+00    0.440E-01
RMM:   2    -0.898137178433E+03   -0.63860E-02   -0.82105E-02  2985   0.469E-01    0.398E-01
RMM:   3    -0.898138239266E+03   -0.10608E-02   -0.14118E-02  3521   0.105E-01    0.346E-01
RMM:   4    -0.898138190684E+03    0.48582E-04   -0.35404E-03  3281   0.569E-02    0.284E-01
RMM:   5    -0.898138728071E+03   -0.53739E-03   -0.38402E-03  3129   0.562E-02    0.137E-01
RMM:   6    -0.898138558344E+03    0.16973E-03   -0.66777E-04  1959   0.329E-02    0.929E-02
RMM:   7    -0.898138425165E+03    0.13318E-03   -0.14494E-03  2171   0.395E-02    0.366E-02
RMM:   8    -0.898138439741E+03   -0.14576E-04   -0.21281E-04  1553   0.307E-02
  22 F= -.91913440E+03 E0= -.91913440E+03  d E =-.403511E-01  mag=     0.0000
       N       E                     dE             d eps       ncg     rms          rms(c)
DAV:   1    -0.898166272915E+03   -0.27848E-01   -0.64862E+00  2432   0.284E+00    0.704E-01
RMM:   2    -0.898182294366E+03   -0.16021E-01   -0.20135E-01  2956   0.751E-01    0.622E-01
RMM:   3    -0.898184938042E+03   -0.26437E-02   -0.34716E-02  3455   0.174E-01    0.533E-01
RMM:   4    -0.898184836812E+03    0.10123E-03   -0.77771E-03  3462   0.829E-02    0.423E-01
RMM:   5    -0.898185776317E+03   -0.93951E-03   -0.77315E-03  3356   0.790E-02    0.180E-01
RMM:   6    -0.898185492942E+03    0.28338E-03   -0.16475E-03  2670   0.440E-02    0.123E-01
RMM:   7    -0.898185310632E+03    0.18231E-03   -0.34255E-03  2884   0.535E-02    0.566E-02
RMM:   8    -0.898185318361E+03   -0.77283E-05   -0.40948E-04  1800   0.299E-02
  23 F= -.91918188E+03 E0= -.91918188E+03  d E =-.878327E-01  mag=    -0.0000
       N       E                     dE             d eps       ncg     rms          rms(c)
DAV:   1    -0.898139511262E+03    0.45799E-01   -0.25919E+01  2432   0.567E+00    0.147E+00
RMM:   2    -0.898205222362E+03   -0.65711E-01   -0.81069E-01  3003   0.149E+00    0.125E+00
RMM:   3    -0.898214898728E+03   -0.96764E-02   -0.13445E-01  3477   0.340E-01    0.105E+00
RMM:   4    -0.898213857864E+03    0.10409E-02   -0.30210E-02  3563   0.163E-01    0.809E-01
RMM:   5    -0.898216515957E+03   -0.26581E-02   -0.26191E-02  3412   0.146E-01    0.322E-01
RMM:   6    -0.898215455230E+03    0.10607E-02   -0.65627E-03  3424   0.810E-02    0.210E-01
RMM:   7    -0.898214951163E+03    0.50407E-03   -0.93539E-03  3435   0.811E-02    0.106E-01
RMM:   8    -0.898214978650E+03   -0.27488E-04   -0.15952E-03  2423   0.383E-02    0.878E-02
RMM:   9    -0.898215014646E+03   -0.35995E-04   -0.70225E-04  2009   0.343E-02
  24 F= -.91921284E+03 E0= -.91921284E+03  d E =-.118801E+00  mag=    -0.0000
       N       E                     dE             d eps       ncg     rms          rms(c)
DAV:   1    -0.898232703297E+03   -0.17725E-01   -0.65460E+00  2752   0.272E+00    0.622E-01
RMM:   2    -0.898249502993E+03   -0.16800E-01   -0.19581E-01  3012   0.676E-01    0.496E-01
RMM:   3    -0.898251547890E+03   -0.20449E-02   -0.27937E-02  3535   0.146E-01    0.432E-01
RMM:   4    -0.898251255298E+03    0.29259E-03   -0.67497E-03  3433   0.752E-02    0.303E-01
RMM:   5    -0.898251745046E+03   -0.48975E-03   -0.44783E-03  3190   0.626E-02    0.129E-01
RMM:   6    -0.898251589211E+03    0.15583E-03   -0.13458E-03  2486   0.403E-02    0.843E-02
RMM:   7    -0.898251624704E+03   -0.35492E-04   -0.15366E-03  2371   0.412E-02    0.432E-02
RMM:   8    -0.898251642038E+03   -0.17334E-04   -0.28091E-04  1667   0.284E-02
  25 F= -.91925021E+03 E0= -.91925021E+03  d E =-.373699E-01  mag=     0.0000
       N       E                     dE             d eps       ncg     rms          rms(c)
DAV:   1    -0.898255631421E+03   -0.40067E-02   -0.40825E+00  2528   0.215E+00    0.501E-01
RMM:   2    -0.898266030367E+03   -0.10399E-01   -0.12258E-01  3025   0.530E-01    0.400E-01
RMM:   3    -0.898267343939E+03   -0.13136E-02   -0.17090E-02  3517   0.112E-01    0.343E-01
RMM:   4    -0.898267248043E+03    0.95896E-04   -0.40171E-03  3299   0.593E-02    0.242E-01
RMM:   5    -0.898267585525E+03   -0.33748E-03   -0.27369E-03  2877   0.516E-02    0.100E-01
RMM:   6    -0.898267503694E+03    0.81831E-04   -0.67922E-04  2012   0.325E-02
  26 F= -.91926668E+03 E0= -.91926668E+03  d E =-.538402E-01  mag=     0.0000
       N       E                     dE             d eps       ncg     rms          rms(c)
DAV:   1    -0.898218192018E+03    0.49394E-01   -0.16279E+01  2432   0.430E+00    0.104E+00
RMM:   2    -0.898260734270E+03   -0.42542E-01   -0.48897E-01  3033   0.106E+00    0.794E-01
RMM:   3    -0.898265588312E+03   -0.48540E-02   -0.66689E-02  3490   0.226E-01    0.677E-01
RMM:   4    -0.898264797949E+03    0.79036E-03   -0.16790E-02  3511   0.117E-01    0.451E-01
RMM:   5    -0.898265923420E+03   -0.11255E-02   -0.92663E-03  3421   0.881E-02    0.200E-01
RMM:   6    -0.898265433177E+03    0.49024E-03   -0.33503E-03  3206   0.573E-02    0.124E-01
RMM:   7    -0.898265499473E+03   -0.66295E-04   -0.30965E-03  2996   0.501E-02    0.656E-02
RMM:   8    -0.898265534449E+03   -0.34976E-04   -0.59422E-04  1975   0.298E-02
  27 F= -.91926599E+03 E0= -.91926599E+03  d E =-.531452E-01  mag=    -0.0000
       N       E                     dE             d eps       ncg     rms          rms(c)
DAV:   1    -0.898258530357E+03    0.69691E-02   -0.50482E+00  2464   0.240E+00    0.570E-01
RMM:   2    -0.898271214814E+03   -0.12684E-01   -0.14920E-01  3035   0.574E-01    0.441E-01
RMM:   3    -0.898272418878E+03   -0.12041E-02   -0.17341E-02  3133   0.115E-01    0.366E-01
RMM:   4    -0.898272103482E+03    0.31540E-03   -0.44045E-03  2797   0.677E-02    0.230E-01
RMM:   5    -0.898272376881E+03   -0.27340E-03   -0.19640E-03  2314   0.483E-02    0.105E-01
RMM:   6    -0.898272202015E+03    0.17487E-03   -0.44051E-04  1681   0.342E-02    0.652E-02
RMM:   7    -0.898272221749E+03   -0.19735E-04   -0.11188E-03  2014   0.337E-02    0.317E-02
RMM:   8    -0.898272214709E+03    0.70398E-05   -0.88629E-05  1466   0.256E-02
  28 F= -.91927195E+03 E0= -.91927195E+03  d E =-.591052E-01  mag=    -0.0000
       N       E                     dE             d eps       ncg     rms          rms(c)
DAV:   1    -0.898296005213E+03   -0.23783E-01   -0.23269E+00  2496   0.164E+00    0.313E-01
RMM:   2    -0.898302030378E+03   -0.60252E-02   -0.74049E-02  2907   0.442E-01    0.321E-01
RMM:   3    -0.898303078738E+03   -0.10484E-02   -0.12275E-02  3277   0.108E-01    0.286E-01
RMM:   4    -0.898302990958E+03    0.87780E-04   -0.19373E-03  2909   0.456E-02    0.252E-01
RMM:   5    -0.898303307001E+03   -0.31604E-03   -0.31328E-03  2961   0.572E-02    0.131E-01
RMM:   6    -0.898303239737E+03    0.67265E-04   -0.46274E-04  1789   0.333E-02
  29 F= -.91930281E+03 E0= -.91930281E+03  d E =-.308604E-01  mag=     0.0000
       N       E                     dE             d eps       ncg     rms          rms(c)
DAV:   1    -0.898284831070E+03    0.18476E-01   -0.16692E+01  2432   0.440E+00    0.862E-01
RMM:   2    -0.898330853864E+03   -0.46023E-01   -0.55489E-01  3021   0.118E+00    0.843E-01
RMM:   3    -0.898338272086E+03   -0.74182E-02   -0.87999E-02  3457   0.275E-01    0.738E-01
RMM:   4    -0.898337737372E+03    0.53471E-03   -0.16829E-02  3531   0.125E-01    0.646E-01
RMM:   5    -0.898339166491E+03   -0.14291E-02   -0.15708E-02  3457   0.115E-01    0.348E-01
RMM:   6    -0.898339089442E+03    0.77049E-04   -0.44554E-03  3335   0.694E-02    0.204E-01
RMM:   7    -0.898338735862E+03    0.35358E-03   -0.45522E-03  3326   0.652E-02    0.103E-01
RMM:   8    -0.898338694976E+03    0.40886E-04   -0.98040E-04  2179   0.314E-02
  30 F= -.91933792E+03 E0= -.91933792E+03  d E =-.659678E-01  mag=     0.0000
       N       E                     dE             d eps       ncg     rms          rms(c)
DAV:   1    -0.898351555129E+03   -0.12819E-01   -0.23459E+00  2848   0.168E+00    0.366E-01
RMM:   2    -0.898358251947E+03   -0.66968E-02   -0.83480E-02  3002   0.446E-01    0.362E-01
RMM:   3    -0.898359407348E+03   -0.11554E-02   -0.14073E-02  3472   0.110E-01    0.328E-01
RMM:   4    -0.898359279918E+03    0.12743E-03   -0.29710E-03  3165   0.523E-02    0.282E-01
RMM:   5    -0.898359615131E+03   -0.33521E-03   -0.37346E-03  3239   0.594E-02    0.137E-01
RMM:   6    -0.898359527458E+03    0.87674E-04   -0.87921E-04  2234   0.357E-02
  31 F= -.91935927E+03 E0= -.91935927E+03  d E =-.213487E-01  mag=     0.0000
       N       E                     dE             d eps       ncg     rms          rms(c)
DAV:   1    -0.898361818210E+03   -0.22031E-02   -0.94466E-01  2720   0.107E+00    0.244E-01
RMM:   2    -0.898364764516E+03   -0.29463E-02   -0.36509E-02  3013   0.293E-01    0.221E-01
RMM:   3    -0.898365287824E+03   -0.52331E-03   -0.60723E-03  3298   0.720E-02    0.200E-01
RMM:   4    -0.898365239606E+03    0.48217E-04   -0.14201E-03  2588   0.395E-02    0.166E-01
RMM:   5    -0.898365414485E+03   -0.17488E-03   -0.16504E-03  2537   0.445E-02    0.951E-02
RMM:   6    -0.898365367804E+03    0.46681E-04   -0.30163E-04  1714   0.300E-02
  32 F= -.91936543E+03 E0= -.91936543E+03  d E =-.275165E-01  mag=    -0.0000
       N       E                     dE             d eps       ncg     rms          rms(c)
DAV:   1    -0.898346751387E+03    0.18663E-01   -0.37687E+00  2432   0.213E+00    0.464E-01
RMM:   2    -0.898357678794E+03   -0.10927E-01   -0.13386E-01  2964   0.569E-01    0.462E-01
RMM:   3    -0.898359463865E+03   -0.17851E-02   -0.22019E-02  3439   0.145E-01    0.423E-01
RMM:   4    -0.898359183040E+03    0.28082E-03   -0.46853E-03  3398   0.644E-02    0.361E-01
RMM:   5    -0.898359680090E+03   -0.49705E-03   -0.58916E-03  3357   0.723E-02    0.179E-01
RMM:   6    -0.898359509801E+03    0.17029E-03   -0.13797E-03  2603   0.412E-02    0.112E-01
RMM:   7    -0.898359389260E+03    0.12054E-03   -0.14955E-03  2488   0.437E-02    0.571E-02
RMM:   8    -0.898359395923E+03   -0.66624E-05   -0.24363E-04  1622   0.275E-02
  33 F= -.91936012E+03 E0= -.91936012E+03  d E =-.221979E-01  mag=     0.0000
       N       E                     dE             d eps       ncg     rms          rms(c)
DAV:   1    -0.898359939620E+03   -0.55036E-03   -0.21329E+00  2496   0.160E+00    0.330E-01
RMM:   2    -0.898365735207E+03   -0.57956E-02   -0.71916E-02  2891   0.411E-01    0.347E-01
RMM:   3    -0.898366532761E+03   -0.79755E-03   -0.10361E-02  3119   0.102E-01    0.325E-01
RMM:   4    -0.898366239980E+03    0.29278E-03   -0.13440E-03  2374   0.424E-02    0.280E-01
RMM:   5    -0.898366547224E+03   -0.30724E-03   -0.47870E-03  2790   0.679E-02    0.138E-01
RMM:   6    -0.898366311834E+03    0.23539E-03   -0.54960E-04  1786   0.375E-02    0.987E-02
RMM:   7    -0.898366165739E+03    0.14609E-03   -0.12557E-03  2169   0.372E-02    0.481E-02
RMM:   8    -0.898366166031E+03   -0.29197E-06   -0.90284E-05  1457   0.241E-02
  34 F= -.91936639E+03 E0= -.91936639E+03  d E =-.284751E-01  mag=    -0.0000
       N       E                     dE             d eps       ncg     rms          rms(c)
DAV:   1    -0.898377045143E+03   -0.10879E-01   -0.15738E+00  2496   0.133E+00    0.305E-01
RMM:   2    -0.898380720345E+03   -0.36752E-02   -0.44474E-02  2902   0.331E-01    0.269E-01
RMM:   3    -0.898381137575E+03   -0.41723E-03   -0.59360E-03  3061   0.805E-02    0.233E-01
RMM:   4    -0.898381102467E+03    0.35107E-04   -0.12431E-03  2259   0.435E-02    0.165E-01
RMM:   5    -0.898381337909E+03   -0.23544E-03   -0.14164E-03  2272   0.440E-02    0.745E-02
RMM:   6    -0.898381237649E+03    0.10026E-03   -0.23816E-04  1583   0.291E-02    0.483E-02
RMM:   7    -0.898381231908E+03    0.57409E-05   -0.58397E-04  1810   0.278E-02
  35 F= -.91938258E+03 E0= -.91938258E+03  d E =-.161906E-01  mag=    -0.0000
       N       E                     dE             d eps       ncg     rms          rms(c)
DAV:   1    -0.898366227675E+03    0.15010E-01   -0.14266E+01  2432   0.400E+00    0.943E-01
RMM:   2    -0.898401220565E+03   -0.34993E-01   -0.41307E-01  2968   0.102E+00    0.815E-01
RMM:   3    -0.898406164747E+03   -0.49442E-02   -0.63652E-02  3412   0.256E-01    0.702E-01
RMM:   4    -0.898406034984E+03    0.12976E-03   -0.15275E-02  3510   0.116E-01    0.509E-01
RMM:   5    -0.898407839463E+03   -0.18045E-02   -0.11852E-02  3432   0.103E-01    0.222E-01
RMM:   6    -0.898407110343E+03    0.72912E-03   -0.38304E-03  3287   0.629E-02    0.132E-01
RMM:   7    -0.898407087996E+03    0.22346E-04   -0.39804E-03  3112   0.579E-02    0.718E-02
RMM:   8    -0.898407092688E+03   -0.46921E-05   -0.57727E-04  1947   0.286E-02
  36 F= -.91941180E+03 E0= -.91941180E+03  d E =-.454053E-01  mag=    -0.0000
       N       E                     dE             d eps       ncg     rms          rms(c)
DAV:   1    -0.898402642041E+03    0.44460E-02   -0.21171E+00  2624   0.154E+00    0.374E-01
RMM:   2    -0.898407933404E+03   -0.52914E-02   -0.64286E-02  2987   0.397E-01    0.327E-01
RMM:   3    -0.898408784940E+03   -0.85154E-03   -0.10331E-02  3461   0.964E-02    0.287E-01
RMM:   4    -0.898408856350E+03   -0.71410E-04   -0.26070E-03  3065   0.489E-02    0.213E-01
RMM:   5    -0.898409263384E+03   -0.40703E-03   -0.24308E-03  2895   0.507E-02    0.917E-02
RMM:   6    -0.898409136657E+03    0.12673E-03   -0.59821E-04  1918   0.322E-02    0.594E-02
RMM:   7    -0.898409129317E+03    0.73405E-05   -0.89123E-04  2004   0.356E-02
  37 F= -.91941511E+03 E0= -.91941511E+03  d E =-.487217E-01  mag=    -0.0000
       N       E                     dE             d eps       ncg     rms          rms(c)
DAV:   1    -0.898414561736E+03   -0.54251E-02   -0.50111E+00  2432   0.223E+00    0.463E-01
RMM:   2    -0.898425636136E+03   -0.11074E-01   -0.12823E-01  3009   0.528E-01    0.350E-01
RMM:   3    -0.898426964037E+03   -0.13279E-02   -0.17277E-02  3408   0.120E-01    0.301E-01
RMM:   4    -0.898426984283E+03   -0.20246E-04   -0.37399E-03  3218   0.577E-02    0.206E-01
RMM:   5    -0.898427362104E+03   -0.37782E-03   -0.24287E-03  2739   0.500E-02    0.912E-02
RMM:   6    -0.898427291037E+03    0.71067E-04   -0.53929E-04  1871   0.315E-02
  38 F= -.91943539E+03 E0= -.91943539E+03  d E =-.202740E-01  mag=     0.0000
       N       E                     dE             d eps       ncg     rms          rms(c)
DAV:   1    -0.898426172238E+03    0.11899E-02   -0.26192E+00  2496   0.162E+00    0.344E-01
RMM:   2    -0.898432278975E+03   -0.61067E-02   -0.70489E-02  3041   0.388E-01    0.261E-01
RMM:   3    -0.898433064930E+03   -0.78596E-03   -0.95734E-03  3391   0.859E-02    0.228E-01
RMM:   4    -0.898433129443E+03   -0.64513E-04   -0.26159E-03  2968   0.503E-02    0.154E-01
RMM:   5    -0.898433399021E+03   -0.26958E-03   -0.15351E-03  2467   0.430E-02    0.779E-02
RMM:   6    -0.898433334588E+03    0.64433E-04   -0.40973E-04  1764   0.292E-02
  39 F= -.91944295E+03 E0= -.91944295E+03  d E =-.278390E-01  mag=    -0.0000
       N       E                     dE             d eps       ncg     rms          rms(c)
DAV:   1    -0.898400460367E+03    0.32939E-01   -0.10439E+01  2432   0.323E+00    0.684E-01
RMM:   2    -0.898424269035E+03   -0.23809E-01   -0.27299E-01  3015   0.771E-01    0.521E-01
RMM:   3    -0.898427207398E+03   -0.29384E-02   -0.37240E-02  3469   0.176E-01    0.453E-01
RMM:   4    -0.898427120154E+03    0.87244E-04   -0.90170E-03  3462   0.860E-02    0.310E-01
RMM:   5    -0.898427993353E+03   -0.87320E-03   -0.59950E-03  3349   0.727E-02    0.152E-01
RMM:   6    -0.898427710375E+03    0.28298E-03   -0.17297E-03  2675   0.459E-02    0.970E-02
RMM:   7    -0.898427803904E+03   -0.93529E-04   -0.25521E-03  2625   0.512E-02    0.588E-02
RMM:   8    -0.898427780970E+03    0.22935E-04   -0.33966E-04  1703   0.298E-02
  40 F= -.91944044E+03 E0= -.91944044E+03  d E =-.253205E-01  mag=     0.0000
       N       E                     dE             d eps       ncg     rms          rms(c)
DAV:   1    -0.898423168775E+03    0.46351E-02   -0.45735E+00  2432   0.214E+00    0.449E-01
RMM:   2    -0.898433125851E+03   -0.99571E-02   -0.11735E-01  3007   0.500E-01    0.343E-01
RMM:   3    -0.898434128050E+03   -0.10022E-02   -0.13681E-02  3080   0.108E-01    0.297E-01
RMM:   4    -0.898434011737E+03    0.11631E-03   -0.35063E-03  2660   0.645E-02    0.186E-01
RMM:   5    -0.898434314534E+03   -0.30280E-03   -0.17057E-03  2174   0.454E-02    0.960E-02
RMM:   6    -0.898434172671E+03    0.14186E-03   -0.38648E-04  1631   0.329E-02    0.610E-02
RMM:   7    -0.898434170875E+03    0.17964E-05   -0.84355E-04  1966   0.306E-02
  41 F= -.91944481E+03 E0= -.91944481E+03  d E =-.296999E-01  mag=    -0.0000
       N       E                     dE             d eps       ncg     rms          rms(c)
DAV:   1    -0.898434398669E+03   -0.22600E-03   -0.68750E+00  2432   0.283E+00    0.511E-01
RMM:   2    -0.898450986034E+03   -0.16587E-01   -0.20000E-01  3004   0.696E-01    0.456E-01
RMM:   3    -0.898452937250E+03   -0.19512E-02   -0.27174E-02  3327   0.156E-01    0.388E-01
RMM:   4    -0.898452690248E+03    0.24700E-03   -0.54042E-03  3379   0.723E-02    0.317E-01
RMM:   5    -0.898453302898E+03   -0.61265E-03   -0.50941E-03  3196   0.672E-02    0.159E-01
RMM:   6    -0.898453196876E+03    0.10602E-03   -0.10338E-03  2251   0.380E-02    0.104E-01
RMM:   7    -0.898453125063E+03    0.71813E-04   -0.19712E-03  2459   0.464E-02    0.446E-02
RMM:   8    -0.898453135128E+03   -0.10066E-04   -0.20568E-04  1596   0.279E-02
  42 F= -.91946512E+03 E0= -.91946512E+03  d E =-.203005E-01  mag=     0.0000
       N       E                     dE             d eps       ncg     rms          rms(c)
DAV:   1    -0.898446808123E+03    0.63169E-02   -0.43235E+00  2432   0.226E+00    0.413E-01
RMM:   2    -0.898457422287E+03   -0.10614E-01   -0.12741E-01  3014   0.560E-01    0.366E-01
RMM:   3    -0.898458981213E+03   -0.15589E-02   -0.19697E-02  3496   0.127E-01    0.312E-01
RMM:   4    -0.898458965071E+03    0.16143E-04   -0.41455E-03  3314   0.593E-02    0.260E-01
RMM:   5    -0.898459516535E+03   -0.55146E-03   -0.38400E-03  3222   0.586E-02    0.134E-01
RMM:   6    -0.898459496574E+03    0.19961E-04   -0.92211E-04  2172   0.341E-02
  43 F= -.91947253E+03 E0= -.91947253E+03  d E =-.277127E-01  mag=    -0.0000
       N       E                     dE             d eps       ncg     rms          rms(c)
DAV:   1    -0.898465711513E+03   -0.61950E-02   -0.35390E+00  2688   0.202E+00    0.434E-01
RMM:   2    -0.898474295527E+03   -0.85840E-02   -0.10429E-01  3036   0.479E-01    0.328E-01
RMM:   3    -0.898475275294E+03   -0.97977E-03   -0.13684E-02  3527   0.105E-01    0.282E-01
RMM:   4    -0.898475313872E+03   -0.38579E-04   -0.42111E-03  3329   0.604E-02    0.197E-01
RMM:   5    -0.898475701506E+03   -0.38763E-03   -0.22455E-03  2802   0.466E-02    0.104E-01
RMM:   6    -0.898475634777E+03    0.66729E-04   -0.74448E-04  2050   0.316E-02
  44 F= -.91948952E+03 E0= -.91948952E+03  d E =-.169905E-01  mag=     0.0000
       N       E                     dE             d eps       ncg     rms          rms(c)
DAV:   1    -0.898475985659E+03   -0.28415E-03   -0.24533E+00  2432   0.169E+00    0.352E-01
RMM:   2    -0.898482023564E+03   -0.60379E-02   -0.72154E-02  3005   0.401E-01    0.275E-01
RMM:   3    -0.898482753945E+03   -0.73038E-03   -0.98199E-03  3524   0.906E-02    0.240E-01
RMM:   4    -0.898482771631E+03   -0.17685E-04   -0.28733E-03  3108   0.505E-02    0.173E-01
RMM:   5    -0.898483093887E+03   -0.32226E-03   -0.19328E-03  2660   0.459E-02    0.918E-02
RMM:   6    -0.898483037202E+03    0.56684E-04   -0.49830E-04  1884   0.294E-02
  45 F= -.91949763E+03 E0= -.91949763E+03  d E =-.250997E-01  mag=     0.0000
       N       E                     dE             d eps       ncg     rms          rms(c)
DAV:   1    -0.898453799880E+03    0.29294E-01   -0.98012E+00  2432   0.337E+00    0.704E-01
RMM:   2    -0.898477575985E+03   -0.23776E-01   -0.28091E-01  3011   0.793E-01    0.552E-01
RMM:   3    -0.898480167730E+03   -0.25917E-02   -0.36802E-02  3502   0.180E-01    0.474E-01
RMM:   4    -0.898479897003E+03    0.27073E-03   -0.99501E-03  3472   0.918E-02    0.339E-01
RMM:   5    -0.898480897527E+03   -0.10005E-02   -0.66376E-03  3402   0.757E-02    0.169E-01
RMM:   6    -0.898480621341E+03    0.27619E-03   -0.21013E-03  2857   0.467E-02    0.103E-01
RMM:   7    -0.898480676413E+03   -0.55071E-04   -0.27845E-03  2767   0.512E-02    0.545E-02
RMM:   8    -0.898480677825E+03   -0.14123E-05   -0.38801E-04  1768   0.278E-02
  46 F= -.91949243E+03 E0= -.91949243E+03  d E =-.199011E-01  mag=     0.0000
       N       E                     dE             d eps       ncg     rms          rms(c)
DAV:   1    -0.898475940828E+03    0.47356E-02   -0.35496E+00  2592   0.202E+00    0.415E-01
RMM:   2    -0.898484336131E+03   -0.83953E-02   -0.10083E-01  3007   0.464E-01    0.331E-01
RMM:   3    -0.898485019045E+03   -0.68291E-03   -0.10898E-02  3095   0.977E-02    0.285E-01
RMM:   4    -0.898484775536E+03    0.24351E-03   -0.25869E-03  2537   0.563E-02    0.202E-01
RMM:   5    -0.898485088028E+03   -0.31249E-03   -0.20766E-03  2272   0.479E-02    0.103E-01
RMM:   6    -0.898484958194E+03    0.12983E-03   -0.30840E-04  1581   0.305E-02    0.650E-02
RMM:   7    -0.898484927928E+03    0.30266E-04   -0.92119E-04  1908   0.320E-02
  47 F= -.91949585E+03 E0= -.91949585E+03  d E =-.233235E-01  mag=     0.0000
       N       E                     dE             d eps       ncg     rms          rms(c)
DAV:   1    -0.898485107612E+03   -0.14942E-03   -0.41287E+00  2432   0.215E+00    0.393E-01
RMM:   2    -0.898494149456E+03   -0.90418E-02   -0.10784E-01  2997   0.474E-01    0.272E-01
RMM:   3    -0.898494798546E+03   -0.64909E-03   -0.10706E-02  3173   0.102E-01    0.229E-01
RMM:   4    -0.898494796459E+03    0.20877E-05   -0.28569E-03  2796   0.530E-02    0.144E-01
RMM:   5    -0.898495124466E+03   -0.32801E-03   -0.15345E-03  2229   0.414E-02    0.842E-02
RMM:   6    -0.898495030936E+03    0.93530E-04   -0.31630E-04  1611   0.299E-02
  48 F= -.91950713E+03 E0= -.91950713E+03  d E =-.112832E-01  mag=    -0.0000
       N       E                     dE             d eps       ncg     rms          rms(c)
DAV:   1    -0.898468124236E+03    0.27000E-01   -0.14007E+01  2432   0.396E+00    0.745E-01
RMM:   2    -0.898500723908E+03   -0.32600E-01   -0.37789E-01  3050   0.896E-01    0.517E-01
RMM:   3    -0.898503584706E+03   -0.28608E-02   -0.41188E-02  3464   0.196E-01    0.438E-01
RMM:   4    -0.898503534087E+03    0.50619E-04   -0.12793E-02  3476   0.999E-02    0.279E-01
RMM:   5    -0.898504750994E+03   -0.12169E-02   -0.63246E-03  3377   0.682E-02    0.172E-01
RMM:   6    -0.898504351095E+03    0.39990E-03   -0.30155E-03  3077   0.534E-02    0.877E-02
RMM:   7    -0.898504469337E+03   -0.11824E-03   -0.21648E-03  2671   0.464E-02    0.605E-02
RMM:   8    -0.898504463932E+03    0.54051E-05   -0.37936E-04  1760   0.258E-02
  49 F= -.91951875E+03 E0= -.91951875E+03  d E =-.229004E-01  mag=     0.0000
       N       E                     dE             d eps       ncg     rms          rms(c)
DAV:   1    -0.898505413009E+03   -0.94367E-03   -0.59540E+00  2432   0.251E+00    0.484E-01
RMM:   2    -0.898517861170E+03   -0.12448E-01   -0.15201E-01  3008   0.553E-01    0.383E-01
RMM:   3    -0.898519329538E+03   -0.14684E-02   -0.18870E-02  3377   0.128E-01    0.339E-01
RMM:   4    -0.898519233379E+03    0.96159E-04   -0.40130E-03  3286   0.574E-02    0.265E-01
RMM:   5    -0.898520095818E+03   -0.86244E-03   -0.54319E-03  3162   0.661E-02    0.142E-01
RMM:   6    -0.898519768467E+03    0.32735E-03   -0.86020E-04  2075   0.361E-02    0.883E-02
RMM:   7    -0.898519766455E+03    0.20123E-05   -0.22992E-03  2300   0.464E-02    0.398E-02
RMM:   8    -0.898519752117E+03    0.14338E-04   -0.15160E-04  1545   0.282E-02
  50 F= -.91953646E+03 E0= -.91953646E+03  d E =-.177072E-01  mag=    -0.0000
       N       E                     dE             d eps       ncg     rms          rms(c)
DAV:   1    -0.898517032617E+03    0.27338E-02   -0.41242E+00  2496   0.209E+00    0.402E-01
RMM:   2    -0.898525753899E+03   -0.87213E-02   -0.10591E-01  3006   0.465E-01    0.318E-01
RMM:   3    -0.898526774992E+03   -0.10211E-02   -0.13189E-02  3395   0.106E-01    0.280E-01
RMM:   4    -0.898526729189E+03    0.45803E-04   -0.27141E-03  3045   0.488E-02    0.218E-01
RMM:   5    -0.898527354877E+03   -0.62569E-03   -0.37472E-03  2931   0.577E-02    0.117E-01
RMM:   6    -0.898527127507E+03    0.22737E-03   -0.61588E-04  1892   0.334E-02    0.704E-02
RMM:   7    -0.898527136901E+03   -0.93934E-05   -0.14763E-03  2093   0.397E-02    0.320E-02
RMM:   8    -0.898527135096E+03    0.18047E-05   -0.12804E-04  1520   0.295E-02
  51 F= -.91954587E+03 E0= -.91954587E+03  d E =-.271204E-01  mag=     0.0000
       N       E                     dE             d eps       ncg     rms          rms(c)
DAV:   1    -0.898486783264E+03    0.40354E-01   -0.16455E+01  2432   0.418E+00    0.815E-01
RMM:   2    -0.898522738128E+03   -0.35955E-01   -0.43197E-01  3024   0.930E-01    0.648E-01
RMM:   3    -0.898526762565E+03   -0.40244E-02   -0.51850E-02  3379   0.213E-01    0.572E-01
RMM:   4    -0.898526241189E+03    0.52138E-03   -0.11248E-02  3474   0.961E-02    0.442E-01
RMM:   5    -0.898528207096E+03   -0.19659E-02   -0.14359E-02  3394   0.103E-01    0.248E-01
RMM:   6    -0.898527312530E+03    0.89457E-03   -0.29538E-03  3109   0.555E-02    0.144E-01
RMM:   7    -0.898527293169E+03    0.19361E-04   -0.52009E-03  2967   0.620E-02    0.650E-02
RMM:   8    -0.898527255434E+03    0.37735E-04   -0.35525E-04  1780   0.290E-02
  52 F= -.91955011E+03 E0= -.91955011E+03  d E =-.313575E-01  mag=    -0.0000
       N       E                     dE             d eps       ncg     rms          rms(c)
DAV:   1    -0.898524616612E+03    0.26766E-02   -0.21865E+00  2752   0.153E+00    0.284E-01
RMM:   2    -0.898529222264E+03   -0.46057E-02   -0.55795E-02  3015   0.329E-01    0.241E-01
RMM:   3    -0.898529568486E+03   -0.34622E-03   -0.54795E-03  2815   0.688E-02    0.218E-01
RMM:   4    -0.898529423939E+03    0.14455E-03   -0.10657E-03  1996   0.425E-02    0.164E-01
RMM:   5    -0.898529812700E+03   -0.38876E-03   -0.27372E-03  2368   0.485E-02    0.101E-01
RMM:   6    -0.898529565422E+03    0.24728E-03   -0.43777E-04  1694   0.348E-02    0.557E-02
RMM:   7    -0.898529585742E+03   -0.20320E-04   -0.94783E-04  2027   0.275E-02
  53 F= -.91955093E+03 E0= -.91955093E+03  d E =-.321768E-01  mag=    -0.0000
       N       E                     dE             d eps       ncg     rms          rms(c)
DAV:   1    -0.898517025375E+03    0.12540E-01   -0.89473E+00  2432   0.303E+00    0.616E-01
RMM:   2    -0.898537284697E+03   -0.20259E-01   -0.24298E-01  3048   0.647E-01    0.455E-01
RMM:   3    -0.898538767078E+03   -0.14824E-02   -0.24004E-02  3274   0.140E-01    0.380E-01
RMM:   4    -0.898538383918E+03    0.38316E-03   -0.61701E-03  3312   0.749E-02    0.278E-01
RMM:   5    -0.898539549835E+03   -0.11659E-02   -0.63625E-03  3009   0.672E-02    0.171E-01
RMM:   6    -0.898538923896E+03    0.62594E-03   -0.12059E-03  2136   0.411E-02    0.991E-02
RMM:   7    -0.898538901188E+03    0.22708E-04   -0.30092E-03  2341   0.523E-02    0.463E-02
RMM:   8    -0.898538872558E+03    0.28630E-04   -0.15783E-04  1535   0.272E-02
  54 F= -.91956318E+03 E0= -.91956318E+03  d E =-.122557E-01  mag=     0.0000
       N       E                     dE             d eps       ncg     rms          rms(c)
DAV:   1    -0.898534343726E+03    0.45575E-02   -0.20260E+00  2496   0.145E+00    0.301E-01
RMM:   2    -0.898538852011E+03   -0.45083E-02   -0.55348E-02  3076   0.310E-01    0.221E-01
RMM:   3    -0.898539304979E+03   -0.45297E-03   -0.60530E-03  3306   0.677E-02    0.183E-01
RMM:   4    -0.898539344862E+03   -0.39883E-04   -0.13319E-03  2392   0.411E-02    0.135E-01
RMM:   5    -0.898539716479E+03   -0.37162E-03   -0.16740E-03  2314   0.422E-02    0.761E-02
RMM:   6    -0.898539575343E+03    0.14114E-03   -0.31250E-04  1638   0.308E-02    0.440E-02
RMM:   7    -0.898539569022E+03    0.63209E-05   -0.62891E-04  1767   0.290E-02
  55 F= -.91956531E+03 E0= -.91956531E+03  d E =-.143825E-01  mag=    -0.0000
       N       E                     dE             d eps       ncg     rms          rms(c)
DAV:   1    -0.898530048086E+03    0.95273E-02   -0.90511E+00  2432   0.305E+00    0.645E-01
RMM:   2    -0.898549974820E+03   -0.19927E-01   -0.24281E-01  3098   0.631E-01    0.421E-01
RMM:   3    -0.898551456333E+03   -0.14815E-02   -0.24004E-02  3565   0.138E-01    0.355E-01
RMM:   4    -0.898551514193E+03   -0.57860E-04   -0.85917E-03  3424   0.846E-02    0.210E-01
RMM:   5    -0.898552255480E+03   -0.74129E-03   -0.30326E-03  2990   0.495E-02    0.136E-01
RMM:   6    -0.898551932247E+03    0.32323E-03   -0.22527E-03  2618   0.460E-02    0.601E-02
RMM:   7    -0.898552035814E+03   -0.10357E-03   -0.11324E-03  2155   0.374E-02    0.493E-02
RMM:   8    -0.898552024602E+03    0.11211E-04   -0.17987E-04  1585   0.257E-02
  56 F= -.91958042E+03 E0= -.91958042E+03  d E =-.151095E-01  mag=     0.0000
       N       E                     dE             d eps       ncg     rms          rms(c)
DAV:   1    -0.898549524142E+03    0.25117E-02   -0.19869E+00  2560   0.142E+00    0.306E-01
RMM:   2    -0.898553722969E+03   -0.41988E-02   -0.53098E-02  3082   0.298E-01    0.202E-01
RMM:   3    -0.898554122536E+03   -0.39957E-03   -0.56155E-03  3301   0.664E-02    0.170E-01
RMM:   4    -0.898554223786E+03   -0.10125E-03   -0.15058E-03  2473   0.437E-02    0.106E-01
RMM:   5    -0.898554475937E+03   -0.25215E-03   -0.10616E-03  2186   0.374E-02    0.593E-02
RMM:   6    -0.898554408682E+03    0.67255E-04   -0.29048E-04  1664   0.288E-02
  57 F= -.91958406E+03 E0= -.91958406E+03  d E =-.187524E-01  mag=     0.0000
       N       E                     dE             d eps       ncg     rms          rms(c)
DAV:   1    -0.898532755884E+03    0.21720E-01   -0.79482E+00  2432   0.285E+00    0.612E-01
RMM:   2    -0.898550767537E+03   -0.18012E-01   -0.21879E-01  3089   0.596E-01    0.410E-01
RMM:   3    -0.898552006176E+03   -0.12386E-02   -0.21468E-02  3614   0.127E-01    0.345E-01
RMM:   4    -0.898551987314E+03    0.18862E-04   -0.83193E-03  3434   0.820E-02    0.214E-01
RMM:   5    -0.898552785955E+03   -0.79864E-03   -0.35129E-03  3067   0.532E-02    0.145E-01
RMM:   6    -0.898552392262E+03    0.39369E-03   -0.22123E-03  2614   0.458E-02    0.667E-02
RMM:   7    -0.898552508388E+03   -0.11613E-03   -0.15218E-03  2282   0.414E-02    0.513E-02
RMM:   8    -0.898552496529E+03    0.11858E-04   -0.19089E-04  1584   0.258E-02
  58 F= -.91958470E+03 E0= -.91958470E+03  d E =-.193865E-01  mag=    -0.0000
       N       E                     dE             d eps       ncg     rms          rms(c)
DAV:   1    -0.898549320204E+03    0.31882E-02   -0.23258E+00  2432   0.153E+00    0.333E-01
RMM:   2    -0.898554455339E+03   -0.51351E-02   -0.64318E-02  3078   0.315E-01    0.217E-01
RMM:   3    -0.898554651789E+03   -0.19645E-03   -0.47463E-03  2767   0.614E-02    0.183E-01
RMM:   4    -0.898554685591E+03   -0.33802E-04   -0.27682E-03  2305   0.580E-02    0.103E-01
RMM:   5    -0.898554874822E+03   -0.18923E-03   -0.55087E-04  1685   0.286E-02    0.834E-02
RMM:   6    -0.898554728268E+03    0.14655E-03   -0.30338E-04  1535   0.294E-02    0.473E-02
RMM:   7    -0.898554750467E+03   -0.22199E-04   -0.81545E-04  1831   0.254E-02
  59 F= -.91958557E+03 E0= -.91958557E+03  d E =-.202562E-01  mag=     0.0000
       N       E                     dE             d eps       ncg     rms          rms(c)
DAV:   1    -0.898539748991E+03    0.14979E-01   -0.10271E+01  2464   0.323E+00    0.667E-01
RMM:   2    -0.898563279613E+03   -0.23531E-01   -0.28589E-01  3083   0.699E-01    0.426E-01
RMM:   3    -0.898565042418E+03   -0.17628E-02   -0.29081E-02  3401   0.149E-01    0.354E-01
RMM:   4    -0.898564629219E+03    0.41320E-03   -0.71436E-03  3357   0.817E-02    0.246E-01
RMM:   5    -0.898565676041E+03   -0.10468E-02   -0.62466E-03  3143   0.651E-02    0.161E-01
RMM:   6    -0.898565207951E+03    0.46809E-03   -0.17557E-03  2481   0.449E-02    0.868E-02
RMM:   7    -0.898565344615E+03   -0.13666E-03   -0.29352E-03  2480   0.513E-02    0.616E-02
RMM:   8    -0.898565283294E+03    0.61322E-04   -0.22966E-04  1610   0.281E-02
  60 F= -.91959891E+03 E0= -.91959891E+03  d E =-.133394E-01  mag=    -0.0000
       N       E                     dE             d eps       ncg     rms          rms(c)
DAV:   1    -0.898553734955E+03    0.11610E-01   -0.52254E+00  2432   0.230E+00    0.471E-01
RMM:   2    -0.898565759820E+03   -0.12025E-01   -0.14470E-01  3089   0.507E-01    0.309E-01
RMM:   3    -0.898566882414E+03   -0.11226E-02   -0.16526E-02  3620   0.109E-01    0.259E-01
RMM:   4    -0.898566857204E+03    0.25210E-04   -0.40046E-03  3249   0.605E-02    0.184E-01
RMM:   5    -0.898567526263E+03   -0.66906E-03   -0.34961E-03  3048   0.520E-02    0.109E-01
RMM:   6    -0.898567341879E+03    0.18438E-03   -0.11447E-03  2251   0.367E-02    0.594E-02
RMM:   7    -0.898567424655E+03   -0.82777E-04   -0.14489E-03  2206   0.397E-02    0.468E-02
RMM:   8    -0.898567405724E+03    0.18931E-04   -0.19259E-04  1573   0.280E-02
  61 F= -.91960306E+03 E0= -.91960306E+03  d E =-.174889E-01  mag=     0.0000
       N       E                     dE             d eps       ncg     rms          rms(c)
DAV:   1    -0.898559270272E+03    0.81544E-02   -0.53254E+00  2432   0.230E+00    0.520E-01
RMM:   2    -0.898571697819E+03   -0.12428E-01   -0.15025E-01  2975   0.530E-01    0.402E-01
RMM:   3    -0.898572735431E+03   -0.10376E-02   -0.17062E-02  3522   0.125E-01    0.360E-01
RMM:   4    -0.898572665803E+03    0.69628E-04   -0.62461E-03  3382   0.703E-02    0.227E-01
RMM:   5    -0.898573223478E+03   -0.55768E-03   -0.29186E-03  2887   0.513E-02    0.126E-01
RMM:   6    -0.898572952053E+03    0.27142E-03   -0.17537E-03  2478   0.428E-02    0.578E-02
RMM:   7    -0.898573015214E+03   -0.63161E-04   -0.99271E-04  1988   0.359E-02
  62 F= -.91961120E+03 E0= -.91961120E+03  d E =-.814206E-02  mag=     0.0000
       N       E                     dE             d eps       ncg     rms          rms(c)
DAV:   1    -0.898573091273E+03   -0.13922E-03   -0.11958E-03  3168   0.406E-02    0.563E-02
RMM:   2    -0.898573076712E+03    0.14560E-04   -0.13786E-04  1494   0.221E-02
  63 F= -.91961124E+03 E0= -.91961124E+03  d E =-.818066E-02  mag=     0.0000
       N       E                     dE             d eps       ncg     rms          rms(c)
DAV:   1    -0.898564269147E+03    0.88221E-02   -0.55415E+00  2432   0.243E+00    0.496E-01
RMM:   2    -0.898577236118E+03   -0.12967E-01   -0.16021E-01  2924   0.617E-01    0.406E-01
RMM:   3    -0.898579092864E+03   -0.18567E-02   -0.24637E-02  3438   0.160E-01    0.356E-01
RMM:   4    -0.898579013256E+03    0.79608E-04   -0.56137E-03  3422   0.714E-02    0.276E-01
RMM:   5    -0.898579835273E+03   -0.82202E-03   -0.50445E-03  3228   0.623E-02    0.157E-01
RMM:   6    -0.898579525729E+03    0.30954E-03   -0.15977E-03  2599   0.443E-02    0.851E-02
RMM:   7    -0.898579543924E+03   -0.18196E-04   -0.17505E-03  2468   0.446E-02    0.425E-02
RMM:   8    -0.898579551524E+03   -0.76000E-05   -0.21301E-04  1608   0.259E-02
  64 F= -.91962055E+03 E0= -.91962055E+03  d E =-.931341E-02  mag=     0.0000
       N       E                     dE             d eps       ncg     rms          rms(c)
DAV:   1    -0.898578080217E+03    0.14637E-02   -0.74426E-01  2496   0.893E-01    0.186E-01
RMM:   2    -0.898579846511E+03   -0.17663E-02   -0.22322E-02  2979   0.228E-01    0.155E-01
RMM:   3    -0.898580137035E+03   -0.29052E-03   -0.36019E-03  3022   0.568E-02    0.138E-01
RMM:   4    -0.898580169886E+03   -0.32850E-04   -0.84664E-04  2152   0.334E-02
  65 F= -.91962221E+03 E0= -.91962221E+03  d E =-.109714E-01  mag=     0.0000
       N       E                     dE             d eps       ncg     rms          rms(c)
DAV:   1    -0.898571144410E+03    0.89926E-02   -0.29346E+00  2432   0.177E+00    0.394E-01
RMM:   2    -0.898577536562E+03   -0.63922E-02   -0.85793E-02  2944   0.454E-01    0.317E-01
RMM:   3    -0.898578706223E+03   -0.11697E-02   -0.14849E-02  3518   0.119E-01    0.273E-01
RMM:   4    -0.898578827692E+03   -0.12147E-03   -0.37236E-03  3344   0.583E-02    0.209E-01
RMM:   5    -0.898579401202E+03   -0.57351E-03   -0.29584E-03  3073   0.517E-02    0.112E-01
RMM:   6    -0.898579242596E+03    0.15861E-03   -0.11324E-03  2358   0.377E-02    0.586E-02
RMM:   7    -0.898579259323E+03   -0.16727E-04   -0.10697E-03  2192   0.389E-02    0.348E-02
RMM:   8    -0.898579274719E+03   -0.15396E-04   -0.20751E-04  1578   0.274E-02
  66 F= -.91962339E+03 E0= -.91962339E+03  d E =-.121583E-01  mag=    -0.0000
       N       E                     dE             d eps       ncg     rms          rms(c)
DAV:   1    -0.898578988689E+03    0.27063E-03   -0.48784E-01  2624   0.725E-01    0.153E-01
RMM:   2    -0.898580060729E+03   -0.10720E-02   -0.14253E-02  2989   0.174E-01    0.124E-01
RMM:   3    -0.898580137836E+03   -0.77107E-04   -0.13560E-03  2232   0.380E-02    0.108E-01
RMM:   4    -0.898580149944E+03   -0.12107E-04   -0.37079E-04  1635   0.316E-02
  67 F= -.91962342E+03 E0= -.91962342E+03  d E =-.121856E-01  mag=    -0.0000
       N       E                     dE             d eps       ncg     rms          rms(c)
DAV:   1    -0.898568596390E+03    0.11541E-01   -0.60728E+00  2432   0.259E+00    0.533E-01
RMM:   2    -0.898583223978E+03   -0.14628E-01   -0.17664E-01  2902   0.661E-01    0.403E-01
RMM:   3    -0.898585040927E+03   -0.18169E-02   -0.25859E-02  3446   0.168E-01    0.352E-01
RMM:   4    -0.898584969103E+03    0.71824E-04   -0.64843E-03  3451   0.784E-02    0.247E-01
RMM:   5    -0.898585606459E+03   -0.63736E-03   -0.37608E-03  3187   0.551E-02    0.137E-01
RMM:   6    -0.898585437224E+03    0.16923E-03   -0.18332E-03  2702   0.461E-02    0.637E-02
RMM:   7    -0.898585491387E+03   -0.54163E-04   -0.81088E-04  2066   0.368E-02
  68 F= -.91963194E+03 E0= -.91963194E+03  d E =-.852146E-02  mag=     0.0000
       N       E                     dE             d eps       ncg     rms          rms(c)
DAV:   1    -0.898585011679E+03    0.42555E-03   -0.14637E-01  2688   0.404E-01    0.935E-02
RMM:   2    -0.898585405898E+03   -0.39422E-03   -0.47763E-03  2853   0.109E-01    0.692E-02
RMM:   3    -0.898585482676E+03   -0.76778E-04   -0.83828E-04  2058   0.294E-02
  69 F= -.91963243E+03 E0= -.91963243E+03  d E =-.900433E-02  mag=     0.0000
       N       E                     dE             d eps       ncg     rms          rms(c)
DAV:   1    -0.898583200530E+03    0.22054E-02   -0.57914E-01  2496   0.800E-01    0.194E-01
RMM:   2    -0.898584553533E+03   -0.13530E-02   -0.17822E-02  3017   0.203E-01    0.157E-01
RMM:   3    -0.898584761430E+03   -0.20790E-03   -0.28171E-03  2860   0.504E-02    0.135E-01
RMM:   4    -0.898584819321E+03   -0.57891E-04   -0.82030E-04  2150   0.371E-02
  70 F= -.91963275E+03 E0= -.91963275E+03  d E =-.932422E-02  mag=     0.0000
       N       E                     dE             d eps       ncg     rms          rms(c)
DAV:   1    -0.898578385976E+03    0.63755E-02   -0.31570E+00  2432   0.186E+00    0.375E-01
RMM:   2    -0.898585613712E+03   -0.72277E-02   -0.91996E-02  3039   0.437E-01    0.248E-01
RMM:   3    -0.898586428421E+03   -0.81471E-03   -0.12037E-02  3576   0.102E-01    0.205E-01
RMM:   4    -0.898586438818E+03   -0.10397E-04   -0.25507E-03  3170   0.504E-02    0.151E-01
RMM:   5    -0.898586791488E+03   -0.35267E-03   -0.19466E-03  2736   0.431E-02    0.894E-02
RMM:   6    -0.898586779908E+03    0.11581E-04   -0.46634E-04  1885   0.292E-02
  71 F= -.91963693E+03 E0= -.91963693E+03  d E =-.418523E-02  mag=    -0.0000
       N       E                     dE             d eps       ncg     rms          rms(c)
DAV:   1    -0.898585141040E+03    0.16504E-02   -0.37144E-01  2496   0.642E-01    0.136E-01
RMM:   2    -0.898586203694E+03   -0.10627E-02   -0.12986E-02  3142   0.158E-01    0.918E-02
RMM:   3    -0.898586273694E+03   -0.70000E-04   -0.13559E-03  2394   0.342E-02    0.807E-02
RMM:   4    -0.898586292063E+03   -0.18369E-04   -0.38134E-04  1727   0.315E-02
  72 F= -.91963720E+03 E0= -.91963720E+03  d E =-.445493E-02  mag=    -0.0000
       N       E                     dE             d eps       ncg     rms          rms(c)
DAV:   1    -0.898584918312E+03    0.13554E-02   -0.16626E+00  2432   0.143E+00    0.281E-01
RMM:   2    -0.898588664931E+03   -0.37466E-02   -0.49134E-02  3018   0.347E-01    0.206E-01
RMM:   3    -0.898589162787E+03   -0.49786E-03   -0.69345E-03  3572   0.788E-02    0.179E-01
RMM:   4    -0.898589206976E+03   -0.44189E-04   -0.20049E-03  3025   0.466E-02    0.121E-01
RMM:   5    -0.898589418892E+03   -0.21192E-03   -0.99487E-04  2342   0.360E-02    0.644E-02
RMM:   6    -0.898589367551E+03    0.51341E-04   -0.37652E-04  1768   0.309E-02
  73 F= -.91964194E+03 E0= -.91964194E+03  d E =-.474040E-02  mag=    -0.0000
       N       E                     dE             d eps       ncg     rms          rms(c)
DAV:   1    -0.898571690230E+03    0.17729E-01   -0.67060E+00  2432   0.287E+00    0.538E-01
RMM:   2    -0.898588491266E+03   -0.16801E-01   -0.20191E-01  3063   0.691E-01    0.408E-01
RMM:   3    -0.898590088900E+03   -0.15976E-02   -0.24785E-02  3644   0.149E-01    0.360E-01
RMM:   4    -0.898589946657E+03    0.14224E-03   -0.80447E-03  3478   0.863E-02    0.249E-01
RMM:   5    -0.898590669161E+03   -0.72250E-03   -0.46233E-03  3376   0.593E-02    0.152E-01
RMM:   6    -0.898590395961E+03    0.27320E-03   -0.21335E-03  2938   0.479E-02    0.764E-02
RMM:   7    -0.898590462576E+03   -0.66616E-04   -0.14492E-03  2438   0.430E-02    0.434E-02
RMM:   8    -0.898590474420E+03   -0.11843E-04   -0.24406E-04  1623   0.260E-02
  74 F= -.91964638E+03 E0= -.91964638E+03  d E =-.917877E-02  mag=     0.0000
       N       E                     dE             d eps       ncg     rms          rms(c)
DAV:   1    -0.898587107285E+03    0.33553E-02   -0.16267E+00  2496   0.140E+00    0.243E-01
RMM:   2    -0.898591050941E+03   -0.39437E-02   -0.46645E-02  2990   0.331E-01    0.176E-01
RMM:   3    -0.898591466181E+03   -0.41524E-03   -0.64544E-03  3431   0.768E-02    0.151E-01
RMM:   4    -0.898591429871E+03    0.36310E-04   -0.13599E-03  2662   0.408E-02    0.112E-01
RMM:   5    -0.898591633738E+03   -0.20387E-03   -0.12335E-03  2373   0.380E-02    0.603E-02
RMM:   6    -0.898591610269E+03    0.23468E-04   -0.30197E-04  1710   0.275E-02
  75 F= -.91964897E+03 E0= -.91964897E+03  d E =-.258953E-02  mag=     0.0000
       N       E                     dE             d eps       ncg     rms          rms(c)
DAV:   1    -0.898590325764E+03    0.13080E-02   -0.31101E-01  2688   0.615E-01    0.114E-01
RMM:   2    -0.898591169795E+03   -0.84403E-03   -0.10139E-02  3069   0.149E-01    0.799E-02
RMM:   3    -0.898591243000E+03   -0.73205E-04   -0.11172E-03  2322   0.330E-02    0.696E-02
RMM:   4    -0.898591250046E+03   -0.70456E-05   -0.27012E-04  1606   0.307E-02
  76 F= -.91964924E+03 E0= -.91964924E+03  d E =-.286381E-02  mag=    -0.0000
       N       E                     dE             d eps       ncg     rms          rms(c)
DAV:   1    -0.898588088216E+03    0.31548E-02   -0.14976E+00  2496   0.142E+00    0.255E-01
RMM:   2    -0.898591485158E+03   -0.33969E-02   -0.43733E-02  2942   0.357E-01    0.188E-01
RMM:   3    -0.898592022696E+03   -0.53754E-03   -0.73603E-03  3481   0.883E-02    0.161E-01
RMM:   4    -0.898592047130E+03   -0.24435E-04   -0.17586E-03  2895   0.467E-02    0.113E-01
RMM:   5    -0.898592242750E+03   -0.19562E-03   -0.10219E-03  2401   0.372E-02    0.587E-02
RMM:   6    -0.898592237172E+03    0.55783E-05   -0.31188E-04  1774   0.268E-02
  77 F= -.91965181E+03 E0= -.91965181E+03  d E =-.256998E-02  mag=     0.0000
       N       E                     dE             d eps       ncg     rms          rms(c)
DAV:   1    -0.898581369430E+03    0.10873E-01   -0.34461E+00  2432   0.215E+00    0.374E-01
RMM:   2    -0.898589979310E+03   -0.86099E-02   -0.10357E-01  2994   0.538E-01    0.274E-01
RMM:   3    -0.898591083961E+03   -0.11047E-02   -0.15613E-02  3587   0.127E-01    0.237E-01
RMM:   4    -0.898591067077E+03    0.16885E-04   -0.42547E-03  3401   0.650E-02    0.169E-01
RMM:   5    -0.898591393936E+03   -0.32686E-03   -0.21906E-03  2973   0.447E-02    0.979E-02
RMM:   6    -0.898591364641E+03    0.29295E-04   -0.82008E-04  2214   0.332E-02
  78 F= -.91965333E+03 E0= -.91965333E+03  d E =-.409125E-02  mag=     0.0000
       N       E                     dE             d eps       ncg     rms          rms(c)
DAV:   1    -0.898588012007E+03    0.33819E-02   -0.10655E+00  2432   0.122E+00    0.209E-01
RMM:   2    -0.898590983194E+03   -0.29712E-02   -0.35597E-02  2981   0.326E-01    0.160E-01
RMM:   3    -0.898591461523E+03   -0.47833E-03   -0.63114E-03  3487   0.794E-02    0.139E-01
RMM:   4    -0.898591477723E+03   -0.16199E-04   -0.17191E-03  2866   0.466E-02    0.110E-01
RMM:   5    -0.898591649100E+03   -0.17138E-03   -0.10837E-03  2447   0.364E-02    0.693E-02
RMM:   6    -0.898591673673E+03   -0.24573E-04   -0.34531E-04  1808   0.269E-02
  79 F= -.91965534E+03 E0= -.91965534E+03  d E =-.200266E-02  mag=    -0.0000
       N       E                     dE             d eps       ncg     rms          rms(c)
DAV:   1    -0.898585490041E+03    0.61591E-02   -0.15236E+00  2432   0.145E+00    0.248E-01
RMM:   2    -0.898589549789E+03   -0.40597E-02   -0.49287E-02  2944   0.390E-01    0.199E-01
RMM:   3    -0.898590259901E+03   -0.71011E-03   -0.92494E-03  3574   0.977E-02    0.170E-01
RMM:   4    -0.898590276405E+03   -0.16504E-04   -0.24591E-03  3163   0.501E-02    0.137E-01
RMM:   5    -0.898590455765E+03   -0.17936E-03   -0.12849E-03  2611   0.376E-02    0.852E-02
RMM:   6    -0.898590501652E+03   -0.45887E-04   -0.50722E-04  1929   0.284E-02
  80 F= -.91965619E+03 E0= -.91965619E+03  d E =-.285875E-02  mag=     0.0000
       N       E                     dE             d eps       ncg     rms          rms(c)
DAV:   1    -0.898587821950E+03    0.26338E-02   -0.70860E-01  2432   0.102E+00    0.172E-01
RMM:   2    -0.898589876033E+03   -0.20541E-02   -0.24923E-02  2950   0.287E-01    0.146E-01
RMM:   3    -0.898590283699E+03   -0.40767E-03   -0.50734E-03  3338   0.708E-02    0.130E-01
RMM:   4    -0.898590295324E+03   -0.11625E-04   -0.14043E-03  2682   0.426E-02    0.104E-01
RMM:   5    -0.898590412035E+03   -0.11671E-03   -0.84780E-04  2323   0.349E-02    0.652E-02
RMM:   6    -0.898590439405E+03   -0.27370E-04   -0.28926E-04  1733   0.261E-02
  81 F= -.91965770E+03 E0= -.91965770E+03  d E =-.150228E-02  mag=     0.0000
       N       E                     dE             d eps       ncg     rms          rms(c)
DAV:   1    -0.898586729894E+03    0.36821E-02   -0.74579E-01  2432   0.105E+00    0.176E-01
RMM:   2    -0.898588830025E+03   -0.21001E-02   -0.25616E-02  2903   0.296E-01    0.150E-01
RMM:   3    -0.898589281997E+03   -0.45197E-03   -0.54950E-03  3428   0.749E-02    0.133E-01
RMM:   4    -0.898589290810E+03   -0.88130E-05   -0.14515E-03  2745   0.419E-02    0.107E-01
RMM:   5    -0.898589406268E+03   -0.11546E-03   -0.84383E-04  2351   0.346E-02    0.672E-02
RMM:   6    -0.898589426496E+03   -0.20228E-04   -0.29705E-04  1703   0.265E-02
  82 F= -.91965829E+03 E0= -.91965829E+03  d E =-.209623E-02  mag=     0.0000
       N       E                     dE             d eps       ncg     rms          rms(c)
DAV:   1    -0.898586876840E+03    0.25294E-02   -0.68454E-01  2432   0.100E+00    0.158E-01
RMM:   2    -0.898588832934E+03   -0.19561E-02   -0.23463E-02  2931   0.281E-01    0.133E-01
RMM:   3    -0.898589237379E+03   -0.40445E-03   -0.49716E-03  3370   0.695E-02    0.114E-01
RMM:   4    -0.898589265462E+03   -0.28082E-04   -0.12225E-03  2571   0.392E-02    0.938E-02
RMM:   5    -0.898589341625E+03   -0.76163E-04   -0.66320E-04  2179   0.320E-02
  83 F= -.91965966E+03 E0= -.91965966E+03  d E =-.136768E-02  mag=    -0.0000
       N       E                     dE             d eps       ncg     rms          rms(c)
DAV:   1    -0.898586895590E+03    0.23699E-02   -0.46645E-01  2464   0.830E-01    0.148E-01
RMM:   2    -0.898588180088E+03   -0.12845E-02   -0.16447E-02  2960   0.231E-01    0.117E-01
RMM:   3    -0.898588449948E+03   -0.26986E-03   -0.35513E-03  3064   0.591E-02    0.990E-02
RMM:   4    -0.898588503044E+03   -0.53096E-04   -0.90482E-04  2276   0.406E-02
  84 F= -.91966002E+03 E0= -.91966002E+03  d E =-.173335E-02  mag=    -0.0000
       N       E                     dE             d eps       ncg     rms          rms(c)
DAV:   1    -0.898587468188E+03    0.98176E-03   -0.36223E-01  2560   0.742E-01    0.129E-01
RMM:   2    -0.898588413126E+03   -0.94494E-03   -0.11700E-02  2994   0.194E-01    0.107E-01
RMM:   3    -0.898588590097E+03   -0.17697E-03   -0.22896E-03  2895   0.455E-02    0.931E-02
RMM:   4    -0.898588634722E+03   -0.44625E-04   -0.61809E-04  2051   0.354E-02
  85 F= -.91966106E+03 E0= -.91966106E+03  d E =-.103556E-02  mag=    -0.0000
       N       E                     dE             d eps       ncg     rms          rms(c)
DAV:   1    -0.898578699958E+03    0.98901E-02   -0.27941E+00  2432   0.205E+00    0.323E-01
RMM:   2    -0.898585873892E+03   -0.71739E-02   -0.81947E-02  2954   0.531E-01    0.251E-01
RMM:   3    -0.898587069270E+03   -0.11954E-02   -0.15429E-02  3602   0.128E-01    0.211E-01
RMM:   4    -0.898587131193E+03   -0.61923E-04   -0.40845E-03  3400   0.644E-02    0.150E-01
RMM:   5    -0.898587276457E+03   -0.14526E-03   -0.14972E-03  2838   0.384E-02    0.834E-02
RMM:   6    -0.898587332520E+03   -0.56063E-04   -0.78256E-04  2213   0.343E-02
  86 F= -.91966226E+03 E0= -.91966226E+03  d E =-.224011E-02  mag=     0.0000
       N       E                     dE             d eps       ncg     rms          rms(c)
DAV:   1    -0.898585714440E+03    0.15620E-02   -0.39113E-01  2496   0.762E-01    0.118E-01
RMM:   2    -0.898586888697E+03   -0.11743E-02   -0.13241E-02  3035   0.202E-01    0.866E-02
RMM:   3    -0.898587065379E+03   -0.17668E-03   -0.22617E-03  2904   0.455E-02    0.761E-02
RMM:   4    -0.898587079789E+03   -0.14411E-04   -0.59296E-04  2007   0.335E-02
  87 F= -.91966303E+03 E0= -.91966303E+03  d E =-.771074E-03  mag=    -0.0000
       N       E                     dE             d eps       ncg     rms          rms(c)
DAV:   1    -0.898586106268E+03    0.95911E-03   -0.17128E-01  2752   0.504E-01    0.861E-02
RMM:   2    -0.898586578568E+03   -0.47230E-03   -0.58314E-03  2978   0.134E-01    0.764E-02
RMM:   3    -0.898586655829E+03   -0.77261E-04   -0.10146E-03  2278   0.327E-02    0.682E-02
RMM:   4    -0.898586674035E+03   -0.18206E-04   -0.28513E-04  1660   0.316E-02
  88 F= -.91966331E+03 E0= -.91966331E+03  d E =-.104684E-02  mag=     0.0000
       N       E                     dE             d eps       ncg     rms          rms(c)
DAV:   1    -0.898586328689E+03    0.32714E-03   -0.11011E-01  2560   0.403E-01    0.695E-02
RMM:   2    -0.898586650488E+03   -0.32180E-03   -0.44123E-03  3024   0.116E-01    0.576E-02
RMM:   3    -0.898586703423E+03   -0.52935E-04   -0.71385E-04  1977   0.281E-02
  89 F= -.91966404E+03 E0= -.91966404E+03  d E =-.727799E-03  mag=    -0.0000
       N       E                     dE             d eps       ncg     rms          rms(c)
DAV:   1    -0.898585912639E+03    0.73785E-03   -0.15432E-01  2496   0.478E-01    0.100E-01
RMM:   2    -0.898586368019E+03   -0.45538E-03   -0.56782E-03  3050   0.128E-01    0.872E-02
RMM:   3    -0.898586429491E+03   -0.61472E-04   -0.89042E-04  2114   0.305E-02
  90 F= -.91966458E+03 E0= -.91966458E+03  d E =-.127190E-02  mag=    -0.0000
       N       E                     dE             d eps       ncg     rms          rms(c)
DAV:   1    -0.898583000355E+03    0.33677E-02   -0.61097E-01  2432   0.948E-01    0.176E-01
RMM:   2    -0.898584710997E+03   -0.17106E-02   -0.21607E-02  3076   0.252E-01    0.150E-01
RMM:   3    -0.898584951724E+03   -0.24073E-03   -0.35575E-03  3274   0.561E-02    0.128E-01
RMM:   4    -0.898584963006E+03   -0.11282E-04   -0.10862E-03  2576   0.421E-02    0.934E-02
RMM:   5    -0.898585052706E+03   -0.89700E-04   -0.66308E-04  2210   0.330E-02
  91 F= -.91966484E+03 E0= -.91966484E+03  d E =-.153199E-02  mag=    -0.0000
       N       E                     dE             d eps       ncg     rms          rms(c)
DAV:   1    -0.898585544708E+03   -0.58170E-03   -0.15567E-01  2656   0.482E-01    0.807E-02
RMM:   2    -0.898585963149E+03   -0.41844E-03   -0.50599E-03  2929   0.127E-01    0.620E-02
RMM:   3    -0.898585982101E+03   -0.18951E-04   -0.39655E-04  1729   0.259E-02
  92 F= -.91966495E+03 E0= -.91966495E+03  d E =-.163818E-02  mag=    -0.0000
       N       E                     dE             d eps       ncg     rms          rms(c)
DAV:   1    -0.898585353582E+03    0.60957E-03   -0.49333E-02  2592   0.273E-01    0.454E-02
RMM:   2    -0.898585502614E+03   -0.14903E-03   -0.17851E-03  2660   0.721E-02    0.187E-02
RMM:   3    -0.898585516187E+03   -0.13573E-04   -0.18240E-04  1540   0.216E-02
  93 F= -.91966495E+03 E0= -.91966495E+03  d E =-.163639E-02  mag=    -0.0000
       N       E                     dE             d eps       ncg     rms          rms(c)
DAV:   1    -0.898585741924E+03   -0.23931E-03   -0.12178E-02  2960   0.138E-01    0.278E-02
RMM:   2    -0.898585754463E+03   -0.12539E-04   -0.31556E-04  1598   0.349E-02
  94 F= -.91966495E+03 E0= -.91966495E+03  d E =-.163996E-02  mag=     0.0000
       N       E                     dE             d eps       ncg     rms          rms(c)
DAV:   1    -0.898585647529E+03    0.94395E-04   -0.29283E-03  2960   0.704E-02    0.143E-02
RMM:   2    -0.898585650248E+03   -0.27194E-05   -0.71093E-05  1417   0.193E-02
  95 F= -.91966496E+03 E0= -.91966496E+03  d E =-.165308E-02  mag=    -0.0000
       N       E                     dE             d eps       ncg     rms          rms(c)
DAV:   1    -0.898585707848E+03   -0.60319E-04   -0.50428E-04  2560   0.317E-02    0.100E-02
RMM:   2    -0.898585707914E+03   -0.66095E-07   -0.19770E-05  1268   0.118E-02
  96 F= -.91966497E+03 E0= -.91966497E+03  d E =-.165981E-02  mag=    -0.0000
       N       E                     dE             d eps       ncg     rms          rms(c)
DAV:   1    -0.898585099284E+03    0.60856E-03   -0.10708E-01  2496   0.402E-01    0.650E-02
RMM:   2    -0.898585402309E+03   -0.30303E-03   -0.38500E-03  2881   0.114E-01    0.470E-02
RMM:   3    -0.898585436361E+03   -0.34052E-04   -0.49235E-04  1818   0.285E-02
  97 F= -.91966538E+03 E0= -.91966538E+03  d E =-.406264E-03  mag=    -0.0000
       N       E                     dE             d eps       ncg     rms          rms(c)
DAV:   1    -0.898585328165E+03    0.74144E-04   -0.84113E-03  3312   0.119E-01    0.420E-02
RMM:   2    -0.898585343028E+03   -0.14863E-04   -0.25223E-04  1526   0.357E-02
  98 F= -.91966547E+03 E0= -.91966547E+03  d E =-.495385E-03  mag=    -0.0000
       N       E                     dE             d eps       ncg     rms          rms(c)
DAV:   1    -0.898585004003E+03    0.32416E-03   -0.31883E-02  2592   0.220E-01    0.632E-02
RMM:   2    -0.898585083199E+03   -0.79196E-04   -0.11108E-03  2287   0.635E-02    0.478E-02
RMM:   3    -0.898585102468E+03   -0.19269E-04   -0.22881E-04  1534   0.238E-02
  99 F= -.91966559E+03 E0= -.91966559E+03  d E =-.619688E-03  mag=    -0.0000
       N       E                     dE             d eps       ncg     rms          rms(c)
DAV:   1    -0.898585374866E+03   -0.29167E-03   -0.22298E-02  2896   0.176E-01    0.401E-02
RMM:   2    -0.898585422507E+03   -0.47641E-04   -0.63366E-04  1872   0.467E-02
 100 F= -.91966594E+03 E0= -.91966594E+03  d E =-.349182E-03  mag=    -0.0000
       N       E                     dE             d eps       ncg     rms          rms(c)
DAV:   1    -0.898585618793E+03   -0.24393E-03   -0.47781E-02  2496   0.250E-01    0.658E-02
RMM:   2    -0.898585722049E+03   -0.10326E-03   -0.14283E-03  2328   0.654E-02    0.583E-02
RMM:   3    -0.898585738517E+03   -0.16468E-04   -0.20508E-04  1485   0.245E-02
 101 F= -.91966630E+03 E0= -.91966630E+03  d E =-.707203E-03  mag=     0.0000
       N       E                     dE             d eps       ncg     rms          rms(c)
DAV:   1    -0.898585366190E+03    0.35586E-03   -0.18663E-01  2496   0.492E-01    0.114E-01
RMM:   2    -0.898585790334E+03   -0.42414E-03   -0.55022E-03  2875   0.125E-01    0.996E-02
RMM:   3    -0.898585834857E+03   -0.44524E-04   -0.66211E-04  1952   0.318E-02
 102 F= -.91966648E+03 E0= -.91966648E+03  d E =-.887849E-03  mag=     0.0000
       N       E                     dE             d eps       ncg     rms          rms(c)
DAV:   1    -0.898585789764E+03    0.56955E-06   -0.42635E-02  3072   0.239E-01    0.427E-02
RMM:   2    -0.898585899507E+03   -0.10974E-03   -0.11499E-03  2105   0.584E-02    0.177E-02
RMM:   3    -0.898585914152E+03   -0.14646E-04   -0.14088E-04  1442   0.237E-02
 103 F= -.91966652E+03 E0= -.91966652E+03  d E =-.927157E-03  mag=    -0.0000
       N       E                     dE             d eps       ncg     rms          rms(c)
DAV:   1    -0.898585902017E+03   -0.25102E-05   -0.11028E-02  2944   0.122E-01    0.293E-02
RMM:   2    -0.898585917129E+03   -0.15112E-04   -0.25110E-04  1397   0.299E-02
 104 F= -.91966654E+03 E0= -.91966654E+03  d E =-.950874E-03  mag=    -0.0000
       N       E                     dE             d eps       ncg     rms          rms(c)
DAV:   1    -0.898585926321E+03   -0.24304E-04   -0.26909E-03  2512   0.628E-02    0.147E-02
RMM:   2    -0.898585933179E+03   -0.68583E-05   -0.55134E-05  1229   0.170E-02
 105 F= -.91966655E+03 E0= -.91966655E+03  d E =-.956552E-03  mag=    -0.0000
       N       E                     dE             d eps       ncg     rms          rms(c)
DAV:   1    -0.898585934063E+03   -0.77425E-05   -0.78745E-04  2048   0.341E-02    0.111E-02
RMM:   2    -0.898585935499E+03   -0.14353E-05   -0.22338E-05  1224   0.122E-02
 106 F= -.91966655E+03 E0= -.91966655E+03  d E =-.964619E-03  mag=    -0.0000
       N       E                     dE             d eps       ncg     rms          rms(c)
DAV:   1    -0.898585988860E+03   -0.54796E-04   -0.44409E-02  2496   0.246E-01    0.456E-02
RMM:   2    -0.898586091138E+03   -0.10228E-03   -0.12276E-03  2186   0.611E-02    0.366E-02
RMM:   3    -0.898586105801E+03   -0.14663E-04   -0.17166E-04  1232   0.240E-02
 107 F= -.91966686E+03 E0= -.91966686E+03  d E =-.303891E-03  mag=     0.0000
       N       E                     dE             d eps       ncg     rms          rms(c)
DAV:   1    -0.898586071331E+03    0.19807E-04   -0.29842E-02  2656   0.205E-01    0.500E-02
RMM:   2    -0.898586136169E+03   -0.64839E-04   -0.82530E-04  1997   0.484E-02
 108 F= -.91966700E+03 E0= -.91966700E+03  d E =-.443558E-03  mag=     0.0000
       N       E                     dE             d eps       ncg     rms          rms(c)
DAV:   1    -0.898586187911E+03   -0.11658E-03   -0.36868E-02  2528   0.226E-01    0.514E-02
RMM:   2    -0.898586273126E+03   -0.85215E-04   -0.10903E-03  2123   0.559E-02    0.423E-02
RMM:   3    -0.898586286662E+03   -0.13535E-04   -0.15829E-04  1338   0.235E-02
 109 F= -.91966736E+03 E0= -.91966736E+03  d E =-.361208E-03  mag=     0.0000
