       N       E                     dE             d eps       ncg     rms          rms(c)
DAV:   1     0.159330409627E+05    0.15933E+05   -0.34511E+05  2368   0.150E+03
DAV:   2     0.571224430812E+04   -0.10221E+05   -0.90261E+04  2560   0.398E+02
DAV:   3     0.475249564420E+03   -0.52370E+04   -0.49968E+04  3056   0.264E+02
DAV:   4    -0.967805518791E+03   -0.14431E+04   -0.13226E+04  3440   0.135E+02
DAV:   5    -0.110518925325E+04   -0.13738E+03   -0.13572E+03  3936   0.530E+01    0.157E+02
RMM:   6    -0.907761496813E+03    0.19743E+03   -0.58252E+02  3265   0.297E+01    0.991E+01
RMM:   7    -0.100545822187E+04   -0.97697E+02   -0.12076E+03  3472   0.306E+01    0.164E+02
RMM:   8    -0.109301389789E+04   -0.87556E+02   -0.52786E+02  3273   0.311E+01    0.217E+02
RMM:   9    -0.102405633389E+04    0.68958E+02   -0.24500E+02  3309   0.123E+01    0.208E+02
RMM:  10    -0.105112957360E+04   -0.27073E+02   -0.21638E+02  3467   0.126E+01    0.236E+02
RMM:  11    -0.934758679688E+03    0.11637E+03   -0.11099E+02  3401   0.959E+00    0.138E+02
RMM:  12    -0.909468499642E+03    0.25290E+02   -0.55630E+01  3247   0.913E+00    0.833E+01
RMM:  13    -0.993516634841E+03   -0.84048E+02   -0.16629E+02  3287   0.160E+01    0.189E+02
RMM:  14    -0.944768241112E+03    0.48748E+02   -0.62060E+01  3285   0.832E+00    0.135E+02
RMM:  15    -0.936601563938E+03    0.81667E+01   -0.19237E+01  3265   0.580E+00    0.107E+02
RMM:  16    -0.908485069390E+03    0.28116E+02   -0.13959E+01  3250   0.458E+00    0.865E+01
RMM:  17    -0.900870220262E+03    0.76148E+01   -0.30517E+01  3296   0.691E+00    0.839E+01
RMM:  18    -0.909814269092E+03   -0.89440E+01   -0.24843E+01  3256   0.729E+00    0.804E+01
RMM:  19    -0.923935610732E+03   -0.14121E+02   -0.17424E+01  3303   0.566E+00    0.951E+01
RMM:  20    -0.895460372964E+03    0.28475E+02   -0.73275E+00  3280   0.447E+00    0.718E+01
RMM:  21    -0.891643380835E+03    0.38170E+01   -0.66267E+00  3495   0.289E+00    0.630E+01
RMM:  22    -0.892619419991E+03   -0.97604E+00   -0.13552E+00  3057   0.230E+00    0.647E+01
RMM:  23    -0.894995834409E+03   -0.23764E+01   -0.20893E+00  3389   0.171E+00    0.623E+01
RMM:  24    -0.895466801680E+03   -0.47097E+00   -0.40086E-01  2799   0.159E+00    0.613E+01
RMM:  25    -0.896225887254E+03   -0.75909E+00   -0.37230E-01  3552   0.689E-01    0.605E+01
RMM:  26    -0.896752817099E+03   -0.52693E+00   -0.12277E-01  3099   0.676E-01    0.608E+01
RMM:  27    -0.898014010943E+03   -0.12612E+01   -0.22521E-01  3485   0.522E-01    0.606E+01
RMM:  28    -0.900790708616E+03   -0.27767E+01   -0.31515E-01  3266   0.898E-01    0.607E+01
RMM:  29    -0.902072950577E+03   -0.12822E+01   -0.33218E-01  3369   0.746E-01    0.605E+01
RMM:  30    -0.904721063705E+03   -0.26481E+01   -0.61962E-01  3265   0.110E+00    0.608E+01
RMM:  31    -0.908216877654E+03   -0.34958E+01   -0.75426E-01  3326   0.126E+00    0.605E+01
RMM:  32    -0.909929199320E+03   -0.17123E+01   -0.62454E-01  3312   0.116E+00    0.602E+01
RMM:  33    -0.913548555440E+03   -0.36194E+01   -0.83390E-01  3431   0.118E+00    0.604E+01
RMM:  34    -0.916090753308E+03   -0.25422E+01   -0.84368E-01  3316   0.141E+00    0.606E+01
RMM:  35    -0.917914088849E+03   -0.18233E+01   -0.73717E-01  3505   0.109E+00    0.606E+01
RMM:  36    -0.919550555836E+03   -0.16365E+01   -0.47881E-01  3297   0.109E+00    0.624E+01
RMM:  37    -0.919758126847E+03   -0.20757E+00   -0.13563E-01  3515   0.509E-01    0.624E+01
RMM:  38    -0.919885931438E+03   -0.12780E+00   -0.12667E-01  3345   0.490E-01    0.620E+01
RMM:  39    -0.919907093681E+03   -0.21162E-01   -0.11385E-01  3314   0.496E-01    0.607E+01
RMM:  40    -0.921034001008E+03   -0.11269E+01   -0.44177E-01  3282   0.986E-01    0.599E+01
RMM:  41    -0.921674242568E+03   -0.64024E+00   -0.73134E-01  3343   0.123E+00    0.594E+01
RMM:  42    -0.921886904678E+03   -0.21266E+00   -0.27146E-01  3371   0.829E-01    0.592E+01
RMM:  43    -0.921876542008E+03    0.10363E-01   -0.18932E-01  3634   0.508E-01    0.588E+01
RMM:  44    -0.922745692474E+03   -0.86915E+00   -0.33663E-01  3267   0.923E-01    0.570E+01
RMM:  45    -0.922886175189E+03   -0.14048E+00   -0.12172E-01  3455   0.516E-01    0.565E+01
RMM:  46    -0.922588899709E+03    0.29728E+00   -0.34009E-01  3314   0.853E-01    0.561E+01
RMM:  47    -0.922509098673E+03    0.79801E-01   -0.10129E-01  3126   0.609E-01    0.560E+01
RMM:  48    -0.922561246570E+03   -0.52148E-01   -0.89275E-02  3522   0.375E-01    0.561E+01
RMM:  49    -0.922697453129E+03   -0.13621E+00   -0.31554E-02  2972   0.398E-01    0.561E+01
RMM:  50    -0.923578485406E+03   -0.88103E+00   -0.11667E-01  3185   0.514E-01    0.562E+01
RMM:  51    -0.101463972947E+04   -0.91061E+02   -0.27812E+02  3322   0.191E+01    0.162E+02
RMM:  52    -0.945977905408E+03    0.68662E+02   -0.57700E+01  3033   0.102E+01    0.110E+02
RMM:  53    -0.952937099288E+03   -0.69592E+01   -0.55246E+01  3368   0.773E+00    0.124E+02
RMM:  54    -0.917647330350E+03    0.35290E+02   -0.25306E+01  3330   0.620E+00    0.833E+01
RMM:  55    -0.920089806542E+03   -0.24425E+01   -0.20581E+01  3247   0.532E+00    0.872E+01
RMM:  56    -0.882907614426E+03    0.37182E+02   -0.82959E+01  3168   0.143E+01    0.893E+01
RMM:  57    -0.884095418688E+03   -0.11878E+01   -0.25781E+01  3103   0.880E+00    0.521E+01
RMM:  58    -0.881129966582E+03    0.29655E+01   -0.16354E+01  3255   0.527E+00    0.576E+01
RMM:  59    -0.875012497425E+03    0.61175E+01   -0.95631E+00  3194   0.414E+00    0.500E+01
RMM:  60    -0.877061570027E+03   -0.20491E+01   -0.55602E+00  3341   0.309E+00    0.470E+01
RMM:  61    -0.879376846836E+03   -0.23153E+01   -0.16498E+01  3303   0.565E+00    0.483E+01
RMM:  62    -0.883675340631E+03   -0.42985E+01   -0.45620E+00  2995   0.397E+00    0.449E+01
RMM:  63    -0.883555988626E+03    0.11935E+00   -0.19964E+00  3541   0.161E+00    0.433E+01
RMM:  64    -0.883996145287E+03   -0.44016E+00   -0.80048E-01  3163   0.143E+00    0.425E+01
RMM:  65    -0.885440440347E+03   -0.14443E+01   -0.17793E+00  3285   0.151E+00    0.436E+01
RMM:  66    -0.885864106427E+03   -0.42367E+00   -0.89970E+00  3265   0.372E+00    0.401E+01
RMM:  67    -0.888063772273E+03   -0.21997E+01   -0.35680E+00  3103   0.315E+00    0.377E+01
RMM:  68    -0.890244616935E+03   -0.21808E+01   -0.10814E+01  3232   0.425E+00    0.349E+01
RMM:  69    -0.890164925766E+03    0.79691E-01   -0.16440E+01  3310   0.445E+00    0.366E+01
RMM:  70    -0.889207074391E+03    0.95785E+00   -0.13500E+01  3367   0.285E+00    0.369E+01
RMM:  71    -0.885581415682E+03    0.36257E+01   -0.94003E+00  3232   0.329E+00    0.369E+01
RMM:  72    -0.885236674143E+03    0.34474E+00   -0.36423E+00  3228   0.225E+00    0.340E+01
RMM:  73    -0.880181875863E+03    0.50548E+01   -0.49205E+00  3159   0.378E+00    0.344E+01
RMM:  74    -0.879910489468E+03    0.27139E+00   -0.55323E+00  3296   0.332E+00    0.382E+01
RMM:  75    -0.879460249004E+03    0.45024E+00   -0.14337E+00  3386   0.164E+00    0.382E+01
RMM:  76    -0.877554739522E+03    0.19055E+01   -0.13112E+00  3099   0.219E+00    0.390E+01
RMM:  77    -0.873910050615E+03    0.36447E+01   -0.96261E-01  3173   0.178E+00    0.387E+01
RMM:  78    -0.871490665468E+03    0.24194E+01   -0.14777E+00  3244   0.173E+00    0.430E+01
RMM:  79    -0.871099079688E+03    0.39159E+00   -0.37575E-01  3242   0.830E-01    0.442E+01
RMM:  80    -0.872001631036E+03   -0.90255E+00   -0.15990E-01  3185   0.679E-01    0.443E+01
RMM:  81    -0.853729624756E+03    0.18272E+02   -0.15911E+01  3230   0.625E+00    0.705E+01
RMM:  82    -0.854373399326E+03   -0.64377E+00   -0.45194E+00  3294   0.266E+00    0.713E+01
RMM:  83    -0.855978827502E+03   -0.16054E+01   -0.11607E+00  3582   0.139E+00    0.727E+01
RMM:  84    -0.855848211452E+03    0.13062E+00   -0.42857E-01  3443   0.648E-01    0.731E+01
RMM:  85    -0.855025686960E+03    0.82252E+00   -0.14303E-01  3700   0.382E-01    0.734E+01
RMM:  86    -0.895879032072E+03   -0.40853E+02   -0.36319E+01  3051   0.100E+01    0.916E+01
RMM:  87    -0.889039862819E+03    0.68392E+01   -0.11710E+01  3234   0.411E+00    0.310E+01
RMM:  88    -0.891747157604E+03   -0.27073E+01   -0.45744E+00  3001   0.360E+00    0.516E+01
RMM:  89    -0.890600987748E+03    0.11462E+01   -0.18191E+00  3201   0.143E+00    0.318E+01
RMM:  90    -0.889672633020E+03    0.92835E+00   -0.27919E+00  3234   0.212E+00    0.317E+01
RMM:  91    -0.885622374977E+03    0.40503E+01   -0.75399E+00  3165   0.367E+00    0.229E+01
RMM:  92    -0.886387545523E+03   -0.76517E+00   -0.47427E+00  3226   0.293E+00    0.256E+01
RMM:  93    -0.886405723713E+03   -0.18178E-01   -0.17659E+00  3326   0.158E+00    0.204E+01
RMM:  94    -0.888503159343E+03   -0.20974E+01   -0.13427E+00  3199   0.159E+00    0.254E+01
RMM:  95    -0.888317827055E+03    0.18533E+00   -0.42090E-01  3249   0.874E-01    0.218E+01
RMM:  96    -0.888055770357E+03    0.26206E+00   -0.25219E+00  3182   0.202E+00    0.210E+01
RMM:  97    -0.888985857902E+03   -0.93009E+00   -0.12454E+00  3237   0.134E+00    0.202E+01
RMM:  98    -0.890537667774E+03   -0.15518E+01   -0.13288E+00  3179   0.150E+00    0.250E+01
RMM:  99    -0.890663034876E+03   -0.12537E+00   -0.47049E-01  3060   0.931E-01    0.240E+01
RMM: 100    -0.890280863269E+03    0.38217E+00   -0.87976E-01  3199   0.118E+00
   1 F= -.91120176E+03 E0= -.91118738E+03  d E =-.911202E+03  mag=     0.2620
       N       E                     dE             d eps       ncg     rms          rms(c)
DAV:   1    -0.886519385706E+03    0.41436E+01   -0.31746E+01  3088   0.110E+01    0.212E+01
RMM:   2    -0.106715503966E+04   -0.18064E+03   -0.26839E+02  3351   0.187E+01    0.190E+02
RMM:   3    -0.900380493195E+03    0.16677E+03   -0.21914E+01  2767   0.953E+00    0.316E+01
RMM:   4    -0.894038596697E+03    0.63419E+01   -0.14842E+01  3099   0.560E+00    0.206E+01
RMM:   5    -0.892530727502E+03    0.15079E+01   -0.34970E+00  2914   0.337E+00    0.172E+01
RMM:   6    -0.890309617533E+03    0.22211E+01   -0.10264E+01  3170   0.386E+00    0.132E+01
RMM:   7    -0.890044883487E+03    0.26473E+00   -0.21641E+00  3164   0.156E+00    0.114E+01
RMM:   8    -0.891484192211E+03   -0.14393E+01   -0.69123E+00  3108   0.318E+00    0.281E+01
RMM:   9    -0.890390851642E+03    0.10933E+01   -0.14959E+00  3346   0.838E-01    0.139E+01
RMM:  10    -0.890178077875E+03    0.21277E+00   -0.55056E-01  2989   0.107E+00    0.155E+01
RMM:  11    -0.890160960316E+03    0.17118E-01   -0.16551E-01  3398   0.329E-01    0.156E+01
RMM:  12    -0.890349381245E+03   -0.18842E+00   -0.56752E-02  3037   0.331E-01    0.157E+01
RMM:  13    -0.890316319847E+03    0.33061E-01   -0.34127E-02  3211   0.200E-01    0.150E+01
RMM:  14    -0.890447313934E+03   -0.13099E+00   -0.99609E-03  3042   0.138E-01    0.160E+01
RMM:  15    -0.890636568213E+03   -0.18925E+00   -0.23052E-02  2728   0.221E-01    0.177E+01
RMM:  16    -0.890590988295E+03    0.45580E-01   -0.82761E-03  2693   0.152E-01    0.173E+01
RMM:  17    -0.890587180374E+03    0.38079E-02   -0.35908E-03  2482   0.994E-02    0.174E+01
RMM:  18    -0.890706795766E+03   -0.11962E+00   -0.71547E-03  2587   0.117E-01    0.182E+01
RMM:  19    -0.890684623238E+03    0.22173E-01   -0.90706E-03  2536   0.184E-01    0.177E+01
RMM:  20    -0.890666946041E+03    0.17677E-01   -0.27339E-03  2225   0.109E-01    0.180E+01
RMM:  21    -0.890547579375E+03    0.11937E+00   -0.64409E-03  2588   0.131E-01    0.173E+01
RMM:  22    -0.890583033532E+03   -0.35454E-01   -0.53532E-03  2607   0.122E-01    0.173E+01
RMM:  23    -0.890555563579E+03    0.27470E-01   -0.27041E-02  2794   0.221E-01    0.172E+01
RMM:  24    -0.890527605962E+03    0.27958E-01   -0.10989E-02  2632   0.167E-01    0.172E+01
RMM:  25    -0.891035772457E+03   -0.50817E+00   -0.40496E-02  2929   0.238E-01    0.250E+01
RMM:  26    -0.891007483100E+03    0.28289E-01   -0.23859E-02  2503   0.252E-01    0.254E+01
RMM:  27    -0.890956883761E+03    0.50599E-01   -0.46327E-03  2226   0.124E-01    0.256E+01
RMM:  28    -0.891045014744E+03   -0.88131E-01   -0.85648E-03  2661   0.128E-01    0.244E+01
RMM:  29    -0.891370346497E+03   -0.32533E+00   -0.28694E-02  3033   0.230E-01    0.253E+01
RMM:  30    -0.891256005409E+03    0.11434E+00   -0.94656E-03  2445   0.168E-01    0.244E+01
RMM:  31    -0.891429494444E+03   -0.17349E+00   -0.88123E-03  2544   0.140E-01    0.245E+01
RMM:  32    -0.891440040937E+03   -0.10546E-01   -0.29105E-03  2142   0.848E-02    0.246E+01
RMM:  33    -0.891415990169E+03    0.24051E-01   -0.83027E-04  1964   0.544E-02    0.246E+01
RMM:  34    -0.891438242945E+03   -0.22253E-01   -0.21598E-02  3054   0.155E-01    0.253E+01
RMM:  35    -0.891484120147E+03   -0.45877E-01   -0.13523E-02  2785   0.179E-01    0.255E+01
RMM:  36    -0.891675206301E+03   -0.19109E+00   -0.20784E-02  2908   0.182E-01    0.267E+01
RMM:  37    -0.891728963748E+03   -0.53757E-01   -0.47129E-02  3063   0.279E-01    0.273E+01
RMM:  38    -0.891679683315E+03    0.49280E-01   -0.84347E-03  2600   0.135E-01    0.273E+01
RMM:  39    -0.891651681830E+03    0.28001E-01   -0.26917E-03  2420   0.814E-02    0.273E+01
RMM:  40    -0.891835525510E+03   -0.18384E+00   -0.38956E-03  2628   0.693E-02    0.275E+01
RMM:  41    -0.892162523680E+03   -0.32700E+00   -0.10858E-02  2569   0.140E-01    0.275E+01
RMM:  42    -0.891919902818E+03    0.24262E+00   -0.14264E-02  2679   0.183E-01    0.275E+01
RMM:  43    -0.891877387812E+03    0.42515E-01   -0.28635E-03  2205   0.744E-02    0.275E+01
RMM:  44    -0.892103010497E+03   -0.22562E+00   -0.46789E-03  2532   0.847E-02    0.275E+01
RMM:  45    -0.892038897747E+03    0.64113E-01   -0.12157E-03  1938   0.548E-02    0.274E+01
RMM:  46    -0.892662234800E+03   -0.62334E+00   -0.18179E-02  2843   0.155E-01    0.278E+01
RMM:  47    -0.890207295194E+03    0.24549E+01   -0.12175E+00  3127   0.137E+00    0.171E+01
RMM:  48    -0.890313254087E+03   -0.10596E+00   -0.26894E-01  3137   0.622E-01    0.168E+01
RMM:  49    -0.890362058412E+03   -0.48804E-01   -0.13182E-01  3148   0.433E-01    0.165E+01
RMM:  50    -0.890464280822E+03   -0.10222E+00   -0.24273E-02  2906   0.171E-01    0.165E+01
RMM:  51    -0.890544569360E+03   -0.80289E-01   -0.16316E-02  3029   0.160E-01    0.164E+01
RMM:  52    -0.892204531348E+03   -0.16600E+01   -0.26542E+00  3210   0.189E+00    0.290E+01
RMM:  53    -0.887935751325E+03    0.42688E+01   -0.40389E+00  3181   0.253E+00    0.181E+01
RMM:  54    -0.887641921800E+03    0.29383E+00   -0.84854E-01  3227   0.112E+00    0.189E+01
RMM:  55    -0.887409235388E+03    0.23269E+00   -0.22348E-01  3395   0.514E-01    0.190E+01
RMM:  56    -0.886614709111E+03    0.79453E+00   -0.15727E-01  3100   0.651E-01    0.193E+01
RMM:  57    -0.884275887670E+03    0.23388E+01   -0.24046E+00  3065   0.207E+00    0.194E+01
RMM:  58    -0.881100005235E+03    0.31759E+01   -0.37959E+00  3186   0.225E+00    0.177E+01
RMM:  59    -0.880997579279E+03    0.10243E+00   -0.13840E+00  3185   0.114E+00    0.181E+01
RMM:  60    -0.875134845651E+03    0.58627E+01   -0.20768E+00  3016   0.204E+00    0.247E+01
RMM:  61    -0.874124745291E+03    0.10101E+01   -0.70142E-01  3021   0.857E-01    0.247E+01
RMM:  62    -0.879708818577E+03   -0.55841E+01   -0.11346E+00  3005   0.186E+00    0.193E+01
RMM:  63    -0.877776276255E+03    0.19325E+01   -0.17647E+00  2920   0.258E+00    0.188E+01
RMM:  64    -0.877512823503E+03    0.26345E+00   -0.10223E+00  3219   0.110E+00    0.180E+01
RMM:  65    -0.877845672060E+03   -0.33285E+00   -0.23503E-01  2924   0.746E-01    0.177E+01
RMM:  66    -0.878488297135E+03   -0.64263E+00   -0.32861E-01  2975   0.904E-01    0.175E+01
RMM:  67    -0.882389483225E+03   -0.39012E+01   -0.28646E+00  2989   0.249E+00    0.166E+01
RMM:  68    -0.882422211135E+03   -0.32728E-01   -0.91459E-01  2829   0.959E-01    0.166E+01
RMM:  69    -0.881899124445E+03    0.52309E+00   -0.46190E-01  2810   0.112E+00    0.168E+01
RMM:  70    -0.881115951329E+03    0.78317E+00   -0.11148E+00  2992   0.142E+00    0.172E+01
RMM:  71    -0.880833500303E+03    0.28245E+00   -0.12377E+00  3169   0.115E+00    0.174E+01
RMM:  72    -0.880859203129E+03   -0.25703E-01   -0.62362E-01  2949   0.120E+00    0.180E+01
RMM:  73    -0.880323821583E+03    0.53538E+00   -0.11290E+00  3220   0.795E-01    0.232E+01
RMM:  74    -0.879532184034E+03    0.79164E+00   -0.24805E-01  3111   0.476E-01    0.233E+01
RMM:  75    -0.879654832518E+03   -0.12265E+00   -0.32623E-02  3068   0.188E-01    0.233E+01
RMM:  76    -0.879510807552E+03    0.14402E+00   -0.88916E-03  2812   0.121E-01    0.233E+01
RMM:  77    -0.881920965687E+03   -0.24102E+01   -0.19700E+00  2900   0.197E+00    0.229E+01
RMM:  78    -0.883762764447E+03   -0.18418E+01   -0.16457E+00  3122   0.103E+00    0.280E+01
RMM:  79    -0.883795257228E+03   -0.32493E-01   -0.15723E-01  2955   0.499E-01    0.279E+01
RMM:  80    -0.884180964243E+03   -0.38571E+00   -0.71484E-02  3101   0.312E-01    0.274E+01
RMM:  81    -0.884575759420E+03   -0.39480E+00   -0.18699E-01  3034   0.534E-01    0.273E+01
RMM:  82    -0.888853412741E+03   -0.42777E+01   -0.29689E+00  2978   0.255E+00    0.181E+01
RMM:  83    -0.889437200682E+03   -0.58379E+00   -0.25472E+00  3130   0.146E+00    0.239E+01
RMM:  84    -0.888981978212E+03    0.45522E+00   -0.37130E-01  3006   0.738E-01    0.229E+01
RMM:  85    -0.888522791561E+03    0.45919E+00   -0.71588E-01  2924   0.119E+00    0.229E+01
RMM:  86    -0.888289022670E+03    0.23377E+00   -0.74383E-01  3193   0.848E-01    0.230E+01
RMM:  87    -0.890645159135E+03   -0.23561E+01   -0.89258E+00  3084   0.340E+00    0.226E+01
RMM:  88    -0.890894021164E+03   -0.24886E+00   -0.26232E+00  3127   0.139E+00    0.217E+01
RMM:  89    -0.890630865278E+03    0.26316E+00   -0.19507E+00  2891   0.189E+00    0.214E+01
RMM:  90    -0.889991523592E+03    0.63934E+00   -0.27088E+00  3189   0.176E+00    0.216E+01
RMM:  91    -0.889506911860E+03    0.48461E+00   -0.20655E+00  3035   0.197E+00    0.204E+01
RMM:  92    -0.888440390080E+03    0.10665E+01   -0.25299E+00  3105   0.205E+00    0.198E+01
RMM:  93    -0.888243931504E+03    0.19646E+00   -0.19926E+00  3170   0.148E+00    0.203E+01
RMM:  94    -0.887538520558E+03    0.70541E+00   -0.12622E+00  2918   0.170E+00    0.203E+01
RMM:  95    -0.887041222373E+03    0.49730E+00   -0.99500E-01  3200   0.990E-01    0.201E+01
RMM:  96    -0.885765961372E+03    0.12753E+01   -0.97696E-01  2955   0.150E+00    0.198E+01
RMM:  97    -0.883551133084E+03    0.22148E+01   -0.11935E+00  3131   0.155E+00    0.197E+01
RMM:  98    -0.883210240286E+03    0.34089E+00   -0.65445E-01  2946   0.112E+00    0.198E+01
RMM:  99    -0.883217664789E+03   -0.74245E-02   -0.24574E-01  3155   0.383E-01    0.197E+01
RMM: 100    -0.883122162348E+03    0.95502E-01   -0.61197E-02  2713   0.406E-01
   2 F= -.90405156E+03 E0= -.90405154E+03  d E =0.715020E+01  mag=     2.1361
       N       E                     dE             d eps       ncg     rms          rms(c)
DAV:   1    -0.883333709577E+03   -0.11604E+00   -0.44130E+00  2928   0.246E+00    0.197E+01
RMM:   2    -0.911357701100E+03   -0.28024E+02   -0.37130E+01  3520   0.599E+00    0.906E+01
RMM:   3    -0.895889956668E+03    0.15468E+02   -0.19103E+01  3083   0.778E+00    0.343E+01
RMM:   4    -0.895086874556E+03    0.80308E+00   -0.92193E+00  3224   0.400E+00    0.188E+01
RMM:   5    -0.891795685183E+03    0.32912E+01   -0.30491E+00  3051   0.316E+00    0.147E+01
RMM:   6    -0.889925988863E+03    0.18697E+01   -0.97611E+00  3253   0.352E+00    0.109E+01
RMM:   7    -0.889806248246E+03    0.11974E+00   -0.30991E+00  3010   0.228E+00    0.925E+00
RMM:   8    -0.889531678210E+03    0.27457E+00   -0.98949E-01  3112   0.130E+00    0.790E+00
RMM:   9    -0.890146183543E+03   -0.61451E+00   -0.23977E+00  3209   0.166E+00    0.135E+01
RMM:  10    -0.890016982271E+03    0.12920E+00   -0.28998E-01  3080   0.581E-01    0.121E+01
RMM:  11    -0.890095305205E+03   -0.78323E-01   -0.25986E-01  3010   0.710E-01    0.711E+00
RMM:  12    -0.890269965999E+03   -0.17466E+00   -0.25301E-01  3218   0.542E-01    0.633E+00
RMM:  13    -0.890570076928E+03   -0.30011E+00   -0.21282E-01  3172   0.602E-01    0.506E+00
RMM:  14    -0.890731446179E+03   -0.16137E+00   -0.58174E-01  3167   0.920E-01    0.464E+00
RMM:  15    -0.890601723834E+03    0.12972E+00   -0.29679E-01  3227   0.577E-01    0.366E+00
RMM:  16    -0.890914479668E+03   -0.31276E+00   -0.34976E-01  3194   0.698E-01    0.135E+01
RMM:  17    -0.890894374839E+03    0.20105E-01   -0.13318E-01  3069   0.398E-01    0.137E+01
RMM:  18    -0.890749158566E+03    0.14522E+00   -0.20033E-02  2992   0.199E-01    0.123E+01
RMM:  19    -0.890676003719E+03    0.73155E-01   -0.13291E-02  2865   0.159E-01    0.104E+01
RMM:  20    -0.890689825144E+03   -0.13821E-01   -0.17184E-02  2985   0.169E-01    0.122E+01
RMM:  21    -0.890673919395E+03    0.15906E-01   -0.54760E-03  2470   0.105E-01    0.118E+01
RMM:  22    -0.890675156377E+03   -0.12370E-02   -0.16397E-03  1835   0.488E-02    0.119E+01
RMM:  23    -0.890718317709E+03   -0.43161E-01   -0.11376E-02  2996   0.117E-01    0.130E+01
RMM:  24    -0.890712260617E+03    0.60571E-02   -0.18315E-03  2031   0.821E-02    0.129E+01
RMM:  25    -0.890756067665E+03   -0.43807E-01   -0.39676E-03  2476   0.867E-02    0.131E+01
RMM:  26    -0.890625068131E+03    0.13100E+00   -0.59782E-02  3090   0.318E-01    0.956E+00
RMM:  27    -0.890712162548E+03   -0.87094E-01   -0.46644E-02  3148   0.286E-01    0.103E+01
RMM:  28    -0.890814023847E+03   -0.10186E+00   -0.65455E-02  3210   0.319E-01    0.102E+01
RMM:  29    -0.890892786230E+03   -0.78762E-01   -0.16424E-01  3205   0.469E-01    0.100E+01
RMM:  30    -0.890805241918E+03    0.87544E-01   -0.19095E-01  3210   0.478E-01    0.104E+01
RMM:  31    -0.890874054186E+03   -0.68812E-01   -0.18525E-02  2776   0.189E-01    0.103E+01
RMM:  32    -0.890873535863E+03    0.51832E-03   -0.13066E-02  2939   0.134E-01    0.100E+01
RMM:  33    -0.890806273632E+03    0.67262E-01   -0.17801E-01  3096   0.533E-01    0.923E+00
RMM:  34    -0.890768850235E+03    0.37423E-01   -0.23121E-01  3145   0.543E-01    0.795E+00
RMM:  35    -0.890831854375E+03   -0.63004E-01   -0.12374E-01  3162   0.359E-01    0.487E+00
RMM:  36    -0.890870330312E+03   -0.38476E-01   -0.20868E-02  2645   0.240E-01    0.447E+00
RMM:  37    -0.890887877176E+03   -0.17547E-01   -0.70988E-02  3108   0.317E-01    0.396E+00
RMM:  38    -0.890895439179E+03   -0.75620E-02   -0.38699E-02  3013   0.247E-01    0.377E+00
RMM:  39    -0.890868735945E+03    0.26703E-01   -0.23795E-02  3048   0.165E-01    0.307E+00
RMM:  40    -0.890860720572E+03    0.80154E-02   -0.11620E-02  2854   0.140E-01    0.292E+00
RMM:  41    -0.890845339474E+03    0.15381E-01   -0.19174E-02  2992   0.152E-01    0.262E+00
RMM:  42    -0.890845012298E+03    0.32718E-03   -0.10991E-02  2679   0.884E-02    0.249E+00
RMM:  43    -0.890844685906E+03    0.32639E-03   -0.11424E-02  2742   0.965E-02    0.250E+00
RMM:  44    -0.890841101225E+03    0.35847E-02   -0.93149E-03  2524   0.789E-02    0.268E+00
RMM:  45    -0.890839197278E+03    0.19039E-02   -0.30557E-03  1976   0.548E-02    0.259E+00
RMM:  46    -0.890840030950E+03   -0.83367E-03   -0.23403E-03  1930   0.550E-02    0.241E+00
RMM:  47    -0.890759318351E+03    0.80713E-01   -0.22802E-01  3079   0.588E-01    0.650E+00
RMM:  48    -0.890707748915E+03    0.51569E-01   -0.54301E-02  2856   0.236E-01    0.563E+00
RMM:  49    -0.890725176408E+03   -0.17427E-01   -0.82062E-03  2681   0.108E-01    0.723E+00
RMM:  50    -0.890702460940E+03    0.22715E-01   -0.25785E-03  2367   0.739E-02    0.726E+00
RMM:  51    -0.890691378460E+03    0.11082E-01   -0.96334E-04  2066   0.428E-02    0.710E+00
RMM:  52    -0.890781774778E+03   -0.90396E-01   -0.90649E-03  2841   0.130E-01    0.895E+00
RMM:  53    -0.890752920293E+03    0.28854E-01   -0.29377E-03  2368   0.736E-02    0.898E+00
RMM:  54    -0.890742355913E+03    0.10564E-01   -0.54952E-04  1798   0.533E-02    0.900E+00
RMM:  55    -0.890735850941E+03    0.65050E-02   -0.11715E-03  2187   0.465E-02    0.896E+00
RMM:  56    -0.890733115205E+03    0.27357E-02   -0.14093E-03  2315   0.520E-02    0.899E+00
RMM:  57    -0.890730020104E+03    0.30951E-02   -0.47644E-04  1700   0.392E-02    0.884E+00
RMM:  58    -0.890731631332E+03   -0.16112E-02   -0.13506E-04  1513   0.242E-02    0.876E+00
RMM:  59    -0.890721487854E+03    0.10143E-01   -0.14092E-03  2081   0.568E-02    0.778E+00
RMM:  60    -0.890724052338E+03   -0.25645E-02   -0.36097E-03  2576   0.768E-02    0.637E+00
RMM:  61    -0.890743085448E+03   -0.19033E-01   -0.46435E-03  2388   0.952E-02    0.655E+00
RMM:  62    -0.890729870790E+03    0.13215E-01   -0.40897E-03  2633   0.809E-02    0.525E+00
RMM:  63    -0.890742463015E+03   -0.12592E-01   -0.31829E-03  2404   0.786E-02    0.418E+00
RMM:  64    -0.890761963947E+03   -0.19501E-01   -0.36428E-03  2214   0.757E-02    0.359E+00
RMM:  65    -0.890772864123E+03   -0.10900E-01   -0.46739E-03  2069   0.739E-02    0.356E+00
RMM:  66    -0.890774294980E+03   -0.14309E-02   -0.84022E-03  2156   0.757E-02    0.346E+00
RMM:  67    -0.890786318302E+03   -0.12023E-01   -0.92348E-02  2896   0.364E-01    0.275E+00
RMM:  68    -0.890788218234E+03   -0.18999E-02   -0.29322E-02  2861   0.157E-01    0.263E+00
RMM:  69    -0.890804502311E+03   -0.16284E-01   -0.59308E-02  2857   0.208E-01    0.139E+00
RMM:  70    -0.890823230686E+03   -0.18728E-01   -0.32984E-02  2828   0.142E-01    0.149E+00
RMM:  71    -0.890827799338E+03   -0.45687E-02   -0.18634E-02  2659   0.113E-01    0.160E+00
RMM:  72    -0.890847196179E+03   -0.19397E-01   -0.12594E-01  2888   0.349E-01    0.187E+00
RMM:  73    -0.890846649835E+03    0.54634E-03   -0.51797E-02  2711   0.127E-01    0.157E+00
RMM:  74    -0.890846298393E+03    0.35144E-03   -0.65667E-03  2429   0.840E-02    0.649E-01
RMM:  75    -0.890855866454E+03   -0.95681E-02   -0.13891E-02  2642   0.934E-02    0.398E-01
RMM:  76    -0.890860872151E+03   -0.50057E-02   -0.82542E-03  2540   0.835E-02    0.494E-01
RMM:  77    -0.890861404003E+03   -0.53185E-03   -0.45357E-03  2451   0.623E-02    0.596E-01
RMM:  78    -0.890861485664E+03   -0.81661E-04   -0.21683E-03  2192   0.693E-02    0.510E-01
RMM:  79    -0.890863658170E+03   -0.21725E-02   -0.28744E-03  1877   0.478E-02    0.518E-01
RMM:  80    -0.890864892357E+03   -0.12342E-02   -0.28588E-03  1686   0.437E-02    0.329E-01
RMM:  81    -0.890866955988E+03   -0.20636E-02   -0.23493E-03  1637   0.329E-02    0.336E-01
RMM:  82    -0.890867044719E+03   -0.88731E-04   -0.44222E-04  1532   0.293E-02
   3 F= -.91179639E+03 E0= -.91178742E+03  d E =-.774484E+01  mag=    -0.0005
       N       E                     dE             d eps       ncg     rms          rms(c)
DAV:   1    -0.890884930122E+03   -0.17974E-01   -0.98331E-01  2896   0.109E+00    0.568E-01
RMM:   2    -0.890897292015E+03   -0.12362E-01   -0.51512E-02  2989   0.358E-01    0.188E+00
RMM:   3    -0.890890103862E+03    0.71882E-02   -0.16070E-02  3163   0.128E-01    0.114E+00
RMM:   4    -0.890894871036E+03   -0.47672E-02   -0.11292E-02  2788   0.840E-02    0.532E-01
RMM:   5    -0.890906374347E+03   -0.11503E-01   -0.36980E-02  2347   0.812E-02    0.132E+00
RMM:   6    -0.890910181725E+03   -0.38074E-02   -0.33583E-02  2505   0.118E-01    0.105E+00
RMM:   7    -0.890914104947E+03   -0.39232E-02   -0.31367E-02  2498   0.757E-02    0.312E-01
RMM:   8    -0.890926332884E+03   -0.12228E-01   -0.25642E-02  2457   0.107E-01    0.879E-01
RMM:   9    -0.890934168174E+03   -0.78353E-02   -0.76748E-02  2688   0.111E-01    0.100E+00
RMM:  10    -0.890933525643E+03    0.64253E-03   -0.23344E-03  1847   0.413E-02    0.985E-01
RMM:  11    -0.890931903119E+03    0.16225E-02   -0.74999E-04  1546   0.409E-02    0.101E+00
RMM:  12    -0.890936344897E+03   -0.44418E-02   -0.12041E-02  2069   0.875E-02    0.581E-01
RMM:  13    -0.890945304871E+03   -0.89600E-02   -0.51306E-02  2702   0.110E-01    0.893E-01
RMM:  14    -0.890949063786E+03   -0.37589E-02   -0.21666E-02  2518   0.101E-01    0.896E-01
RMM:  15    -0.890951662010E+03   -0.25982E-02   -0.29542E-02  2383   0.703E-02    0.748E-01
RMM:  16    -0.890954464785E+03   -0.28028E-02   -0.15774E-02  2503   0.959E-02    0.211E-01
RMM:  17    -0.890958134057E+03   -0.36693E-02   -0.13198E-02  1996   0.539E-02    0.500E-01
RMM:  18    -0.890958500396E+03   -0.36634E-03   -0.28127E-03  1972   0.512E-02    0.409E-01
RMM:  19    -0.890959546202E+03   -0.10458E-02   -0.51570E-03  1663   0.444E-02    0.413E-01
RMM:  20    -0.890960182482E+03   -0.63628E-03   -0.14936E-03  1650   0.363E-02    0.376E-01
RMM:  21    -0.890961379054E+03   -0.11966E-02   -0.75241E-03  1833   0.507E-02    0.396E-01
RMM:  22    -0.890962085338E+03   -0.70628E-03   -0.44860E-03  1963   0.515E-02    0.319E-01
RMM:  23    -0.890963240349E+03   -0.11550E-02   -0.15815E-02  2036   0.630E-02    0.294E-01
RMM:  24    -0.890963723554E+03   -0.48321E-03   -0.28276E-03  1782   0.441E-02    0.190E-01
RMM:  25    -0.890964363356E+03   -0.63980E-03   -0.51818E-03  1685   0.425E-02    0.276E-01
RMM:  26    -0.890964420145E+03   -0.56789E-04   -0.13389E-03  1631   0.373E-02    0.274E-01
RMM:  27    -0.890964553866E+03   -0.13372E-03   -0.40866E-03  1635   0.387E-02    0.295E-01
RMM:  28    -0.890964582477E+03   -0.28611E-04   -0.37102E-04  1498   0.291E-02
   4 F= -.91189357E+03 E0= -.91188699E+03  d E =-.971714E-01  mag=    -0.0000
       N       E                     dE             d eps       ncg     rms          rms(c)
DAV:   1    -0.890976596089E+03   -0.12042E-01   -0.55180E-01  2624   0.915E-01    0.313E-01
RMM:   2    -0.890980354932E+03   -0.37588E-02   -0.24247E-02  3017   0.287E-01    0.146E+00
RMM:   3    -0.890974347554E+03    0.60074E-02   -0.47593E-03  3096   0.105E-01    0.264E-01
RMM:   4    -0.890978442601E+03   -0.40950E-02   -0.13267E-03  2300   0.497E-02    0.281E-01
RMM:   5    -0.890979121568E+03   -0.67897E-03   -0.13962E-03  2063   0.545E-02    0.411E-01
RMM:   6    -0.890978731647E+03    0.38992E-03   -0.17869E-03  1989   0.476E-02    0.843E-02
RMM:   7    -0.890979175510E+03   -0.44386E-03   -0.34995E-04  1512   0.389E-02    0.937E-02
RMM:   8    -0.890979292872E+03   -0.11736E-03   -0.41438E-04  1486   0.298E-02    0.378E-02
RMM:   9    -0.890979358365E+03   -0.65493E-04   -0.19435E-04  1461   0.285E-02
   5 F= -.91190807E+03 E0= -.91190059E+03  d E =-.145046E-01  mag=    -0.0000
       N       E                     dE             d eps       ncg     rms          rms(c)
DAV:   1    -0.890990366994E+03   -0.11074E-01   -0.13915E+00  2496   0.148E+00    0.525E-01
RMM:   2    -0.890997148723E+03   -0.67817E-02   -0.53497E-02  2966   0.443E-01    0.145E+00
RMM:   3    -0.890991814915E+03    0.53338E-02   -0.11393E-02  3237   0.148E-01    0.596E-01
RMM:   4    -0.890993648643E+03   -0.18337E-02   -0.36690E-03  3175   0.625E-02    0.337E-01
RMM:   5    -0.890998214155E+03   -0.45655E-02   -0.39597E-03  2871   0.777E-02    0.127E+00
RMM:   6    -0.890992345554E+03    0.58686E-02   -0.51302E-03  2679   0.101E-01    0.217E-01
RMM:   7    -0.890995333155E+03   -0.29876E-02   -0.13141E-03  2030   0.542E-02    0.246E-01
RMM:   8    -0.890995158664E+03    0.17449E-03   -0.52437E-04  1690   0.422E-02    0.485E-02
RMM:   9    -0.890995362883E+03   -0.20422E-03   -0.38639E-04  1524   0.344E-02    0.667E-02
RMM:  10    -0.890995428771E+03   -0.65889E-04   -0.24864E-04  1480   0.331E-02
   6 F= -.91192438E+03 E0= -.91191732E+03  d E =-.163117E-01  mag=    -0.0000
       N       E                     dE             d eps       ncg     rms          rms(c)
DAV:   1    -0.890999798822E+03   -0.44359E-02   -0.21097E+00  2592   0.183E+00    0.639E-01
RMM:   2    -0.891009511078E+03   -0.97123E-02   -0.76891E-02  2926   0.535E-01    0.160E+00
RMM:   3    -0.891002929463E+03    0.65816E-02   -0.17357E-02  3261   0.179E-01    0.720E-01
RMM:   4    -0.891004834018E+03   -0.19046E-02   -0.56397E-03  3304   0.774E-02    0.398E-01
RMM:   5    -0.891010281030E+03   -0.54470E-02   -0.48401E-03  2968   0.915E-02    0.134E+00
RMM:   6    -0.891003932724E+03    0.63483E-02   -0.60137E-03  2806   0.110E-01    0.324E-01
RMM:   7    -0.891006151387E+03   -0.22187E-02   -0.22490E-03  2409   0.555E-02    0.487E-01
RMM:   8    -0.891006465461E+03   -0.31407E-03   -0.73033E-04  1849   0.530E-02    0.101E-01
RMM:   9    -0.891006866146E+03   -0.40069E-03   -0.40365E-04  1625   0.381E-02    0.486E-02
RMM:  10    -0.891006945526E+03   -0.79380E-04   -0.34571E-04  1494   0.342E-02
   7 F= -.91193586E+03 E0= -.91192915E+03  d E =-.114796E-01  mag=    -0.0000
       N       E                     dE             d eps       ncg     rms          rms(c)
DAV:   1    -0.891008448032E+03   -0.15819E-02   -0.12552E-01  2896   0.415E-01    0.109E-01
RMM:   2    -0.891008872449E+03   -0.42442E-03   -0.42015E-03  2873   0.106E-01    0.975E-02
RMM:   3    -0.891008960467E+03   -0.88018E-04   -0.71028E-04  1752   0.337E-02
   8 F= -.91193816E+03 E0= -.91193082E+03  d E =-.229424E-02  mag=    -0.0000
       N       E                     dE             d eps       ncg     rms          rms(c)
DAV:   1    -0.891010647912E+03   -0.17755E-02   -0.20049E-01  2688   0.528E-01    0.187E-01
RMM:   2    -0.891011325711E+03   -0.67780E-03   -0.64477E-03  2958   0.127E-01    0.381E-01
RMM:   3    -0.891011059940E+03    0.26577E-03   -0.97233E-04  1903   0.504E-02    0.277E-01
RMM:   4    -0.891011151329E+03   -0.91389E-04   -0.34388E-04  1617   0.368E-02
   9 F= -.91194064E+03 E0= -.91193441E+03  d E =-.248375E-02  mag=    -0.0000
       N       E                     dE             d eps       ncg     rms          rms(c)
DAV:   1    -0.891007032325E+03    0.40276E-02   -0.38485E-01  2720   0.638E-01    0.296E-01
RMM:   2    -0.891010615559E+03   -0.35832E-02   -0.14864E-02  2988   0.155E-01    0.111E+00
RMM:   3    -0.891006152959E+03    0.44626E-02   -0.22615E-03  2097   0.825E-02    0.262E-01
RMM:   4    -0.891008016797E+03   -0.18638E-02   -0.12897E-03  2011   0.448E-02    0.444E-01
RMM:   5    -0.891008073293E+03   -0.56496E-04   -0.40110E-04  1558   0.426E-02
  10 F= -.91193698E+03 E0= -.91193031E+03  d E =0.366072E-02  mag=    -0.0000
       N       E                     dE             d eps       ncg     rms          rms(c)
DAV:   1    -0.891010532432E+03   -0.25156E-02   -0.40178E-01  2512   0.619E-01    0.191E-01
RMM:   2    -0.891011946021E+03   -0.14136E-02   -0.10654E-02  2905   0.135E-01    0.671E-01
RMM:   3    -0.891010603172E+03    0.13428E-02   -0.14068E-03  1888   0.554E-02    0.144E-01
RMM:   4    -0.891011670921E+03   -0.10677E-02   -0.49200E-04  1629   0.342E-02    0.278E-01
RMM:   5    -0.891011464961E+03    0.20596E-03   -0.52754E-04  1556   0.329E-02    0.221E-01
RMM:   6    -0.891011727584E+03   -0.26262E-03   -0.59874E-04  1557   0.309E-02    0.132E-01
RMM:   7    -0.891011788533E+03   -0.60949E-04   -0.46849E-04  1341   0.220E-02
  11 F= -.91194134E+03 E0= -.91193447E+03  d E =-.436576E-02  mag=    -0.0000
       N       E                     dE             d eps       ncg     rms          rms(c)
DAV:   1    -0.891010026882E+03    0.17007E-02   -0.10137E-01  2528   0.312E-01    0.802E-02
RMM:   2    -0.891010272471E+03   -0.24559E-03   -0.22154E-03  1989   0.602E-02    0.109E-01
RMM:   3    -0.891010274992E+03   -0.25217E-05   -0.41131E-04  1375   0.302E-02
  12 F= -.91193957E+03 E0= -.91193282E+03  d E =0.177196E-02  mag=    -0.0000
       N       E                     dE             d eps       ncg     rms          rms(c)
DAV:   1    -0.891012649407E+03   -0.23769E-02   -0.40182E-01  2416   0.662E-01    0.156E-01
RMM:   2    -0.891013750408E+03   -0.11010E-02   -0.10724E-02  2959   0.145E-01    0.274E-01
RMM:   3    -0.891013675579E+03    0.74829E-04   -0.15195E-03  1867   0.501E-02    0.241E-01
RMM:   4    -0.891013759728E+03   -0.84148E-04   -0.39140E-04  1564   0.376E-02
  13 F= -.91194351E+03 E0= -.91193734E+03  d E =-.393494E-02  mag=    -0.0000
       N       E                     dE             d eps       ncg     rms          rms(c)
DAV:   1    -0.891011085397E+03    0.25902E-02   -0.18210E-01  2736   0.415E-01    0.217E-01
RMM:   2    -0.891012869776E+03   -0.17844E-02   -0.67733E-03  2662   0.992E-02    0.838E-01
RMM:   3    -0.891010238900E+03    0.26309E-02   -0.12832E-03  1923   0.619E-02    0.119E-01
RMM:   4    -0.891011636193E+03   -0.13973E-02   -0.49992E-04  1657   0.319E-02    0.218E-01
RMM:   5    -0.891011717830E+03   -0.81638E-04   -0.21861E-04  1329   0.303E-02
  14 F= -.91194107E+03 E0= -.91193421E+03  d E =0.243691E-02  mag=    -0.0000
       N       E                     dE             d eps       ncg     rms          rms(c)
DAV:   1    -0.891013755488E+03   -0.21193E-02   -0.18202E-01  2432   0.441E-01    0.239E-01
RMM:   2    -0.891016100277E+03   -0.23448E-02   -0.85911E-03  2923   0.121E-01    0.142E+00
RMM:   3    -0.891010088472E+03    0.60118E-02   -0.18072E-03  2072   0.776E-02    0.126E-01
RMM:   4    -0.891014211501E+03   -0.41230E-02   -0.60613E-04  1749   0.402E-02    0.244E-01
RMM:   5    -0.891014176084E+03    0.35417E-04   -0.29049E-04  1392   0.320E-02
  15 F= -.91194388E+03 E0= -.91193724E+03  d E =-.281406E-02  mag=    -0.0000
       N       E                     dE             d eps       ncg     rms          rms(c)
DAV:   1    -0.891015152907E+03   -0.94141E-03   -0.15124E-02  2960   0.133E-01    0.227E-01
RMM:   2    -0.891016748642E+03   -0.15957E-02   -0.30750E-03  2342   0.706E-02    0.943E-01
RMM:   3    -0.891013393757E+03    0.33549E-02   -0.10173E-03  1916   0.623E-02    0.231E-01
RMM:   4    -0.891014752323E+03   -0.13586E-02   -0.63653E-04  1719   0.305E-02    0.244E-01
RMM:   5    -0.891015242803E+03   -0.49048E-03   -0.35686E-04  1317   0.324E-02    0.136E-01
RMM:   6    -0.891015299794E+03   -0.56991E-04   -0.30777E-04  1229   0.198E-02
  16 F= -.91194508E+03 E0= -.91193843E+03  d E =-.119511E-02  mag=    -0.0000
       N       E                     dE             d eps       ncg     rms          rms(c)
DAV:   1    -0.891014610811E+03    0.63199E-03   -0.20355E-02  2576   0.150E-01    0.923E-02
RMM:   2    -0.891014946057E+03   -0.33525E-03   -0.90245E-04  1816   0.424E-02    0.434E-01
RMM:   3    -0.891014162675E+03    0.78338E-03   -0.23378E-04  1309   0.337E-02    0.848E-02
RMM:   4    -0.891014652371E+03   -0.48970E-03   -0.10480E-04  1191   0.176E-02    0.365E-02
RMM:   5    -0.891014771730E+03   -0.11936E-03   -0.11012E-04  1165   0.171E-02    0.259E-02
RMM:   6    -0.891014873343E+03   -0.10161E-03   -0.38470E-04  1154   0.132E-02    0.829E-02
RMM:   7    -0.891014942946E+03   -0.69603E-04   -0.29558E-04  1169   0.149E-02
  17 F= -.91194463E+03 E0= -.91193789E+03  d E =0.450640E-03  mag=    -0.0000
       N       E                     dE             d eps       ncg     rms          rms(c)
DAV:   1    -0.891014614592E+03    0.25875E-03   -0.89084E-03  2544   0.103E-01    0.388E-02
RMM:   2    -0.891014691655E+03   -0.77063E-04   -0.31762E-04  1445   0.334E-02
  18 F= -.91194427E+03 E0= -.91193797E+03  d E =0.357152E-03  mag=    -0.0000
       N       E                     dE             d eps       ncg     rms          rms(c)
DAV:   1    -0.891014095937E+03    0.51866E-03   -0.10769E-02  2480   0.131E-01    0.550E-02
RMM:   2    -0.891014235183E+03   -0.13925E-03   -0.47929E-04  1608   0.462E-02    0.196E-01
RMM:   3    -0.891014109977E+03    0.12521E-03   -0.17169E-04  1263   0.308E-02    0.415E-02
RMM:   4    -0.891014267750E+03   -0.15777E-03   -0.14748E-04  1220   0.222E-02    0.475E-02
RMM:   5    -0.891014305341E+03   -0.37591E-04   -0.13713E-04  1196   0.187E-02
  19 F= -.91194394E+03 E0= -.91193728E+03  d E =0.333573E-03  mag=    -0.0000
       N       E                     dE             d eps       ncg     rms          rms(c)
DAV:   1    -0.891014405813E+03   -0.13806E-03   -0.37780E-03  2592   0.699E-02    0.796E-02
RMM:   2    -0.891014651026E+03   -0.24521E-03   -0.48204E-04  1662   0.376E-02    0.381E-01
RMM:   3    -0.891014039818E+03    0.61121E-03   -0.17736E-04  1348   0.323E-02    0.811E-02
RMM:   4    -0.891014413428E+03   -0.37361E-03   -0.45911E-05  1254   0.173E-02    0.116E-01
RMM:   5    -0.891014411830E+03    0.15983E-05   -0.37777E-05  1152   0.165E-02
  20 F= -.91194408E+03 E0= -.91193720E+03  d E =-.139996E-03  mag=    -0.0000
       N       E                     dE             d eps       ncg     rms          rms(c)
DAV:   1    -0.891014386381E+03    0.27048E-04   -0.32407E-01  2448   0.620E-01    0.209E-01
RMM:   2    -0.891015365865E+03   -0.97948E-03   -0.11237E-02  2936   0.174E-01    0.193E-01
RMM:   3    -0.891015613801E+03   -0.24794E-03   -0.22856E-03  2484   0.591E-02    0.282E-01
RMM:   4    -0.891015481172E+03    0.13263E-03   -0.56299E-04  1684   0.420E-02    0.163E-01
RMM:   5    -0.891015821863E+03   -0.34069E-03   -0.10056E-03  1871   0.464E-02    0.146E-01
RMM:   6    -0.891015878508E+03   -0.56645E-04   -0.56347E-04  1452   0.315E-02
  21 F= -.91194635E+03 E0= -.91193999E+03  d E =-.227144E-02  mag=    -0.0000
       N       E                     dE             d eps       ncg     rms          rms(c)
DAV:   1    -0.891015016915E+03    0.80495E-03   -0.14936E-01  2432   0.445E-01    0.144E-01
RMM:   2    -0.891015598304E+03   -0.58139E-03   -0.62603E-03  2841   0.140E-01    0.152E-01
RMM:   3    -0.891015689858E+03   -0.91554E-04   -0.10244E-03  1965   0.452E-02    0.184E-01
RMM:   4    -0.891015680104E+03    0.97536E-05   -0.24015E-04  1300   0.359E-02
  22 F= -.91194568E+03 E0= -.91193932E+03  d E =0.664674E-03  mag=    -0.0000
       N       E                     dE             d eps       ncg     rms          rms(c)
DAV:   1    -0.891013124571E+03    0.25653E-02   -0.11983E-01  2480   0.434E-01    0.187E-01
RMM:   2    -0.891014650837E+03   -0.15263E-02   -0.97114E-03  2966   0.169E-01    0.731E-01
RMM:   3    -0.891012653963E+03    0.19969E-02   -0.14021E-03  2213   0.725E-02    0.144E-01
RMM:   4    -0.891013686328E+03   -0.10324E-02   -0.49326E-04  1756   0.359E-02    0.130E-01
RMM:   5    -0.891013872997E+03   -0.18667E-03   -0.22847E-04  1443   0.353E-02    0.171E-01
RMM:   6    -0.891013949443E+03   -0.76446E-04   -0.58940E-04  1562   0.339E-02
  23 F= -.91194406E+03 E0= -.91193806E+03  d E =0.162611E-02  mag=    -0.0000
       N       E                     dE             d eps       ncg     rms          rms(c)
DAV:   1    -0.891016425956E+03   -0.25530E-02   -0.36290E-01  2416   0.705E-01    0.237E-01
RMM:   2    -0.891019315754E+03   -0.28898E-02   -0.16877E-02  2978   0.214E-01    0.123E+00
RMM:   3    -0.891014739353E+03    0.45764E-02   -0.22649E-03  2353   0.869E-02    0.155E-01
RMM:   4    -0.891017912735E+03   -0.31734E-02   -0.87080E-04  1937   0.444E-02    0.318E-01
RMM:   5    -0.891017856937E+03    0.55798E-04   -0.63984E-04  1649   0.444E-02
  24 F= -.91194804E+03 E0= -.91194097E+03  d E =-.398156E-02  mag=    -0.0000
       N       E                     dE             d eps       ncg     rms          rms(c)
DAV:   1    -0.891019376735E+03   -0.14640E-02   -0.40189E-02  2864   0.205E-01    0.257E-01
RMM:   2    -0.891021240990E+03   -0.18643E-02   -0.41746E-03  2458   0.826E-02    0.987E-01
RMM:   3    -0.891017569765E+03    0.36712E-02   -0.12994E-03  1987   0.671E-02    0.259E-01
RMM:   4    -0.891019079707E+03   -0.15099E-02   -0.11283E-03  2032   0.379E-02    0.404E-01
RMM:   5    -0.891019316541E+03   -0.23683E-03   -0.39523E-04  1448   0.362E-02    0.110E-01
RMM:   6    -0.891019569577E+03   -0.25304E-03   -0.28818E-04  1362   0.221E-02    0.160E-01
RMM:   7    -0.891019589499E+03   -0.19922E-04   -0.38358E-04  1242   0.199E-02
  25 F= -.91194992E+03 E0= -.91194341E+03  d E =-.187500E-02  mag=    -0.0000
       N       E                     dE             d eps       ncg     rms          rms(c)
DAV:   1    -0.891006510380E+03    0.13059E-01   -0.16800E+00  2368   0.139E+00    0.438E-01
RMM:   2    -0.891012845251E+03   -0.63349E-02   -0.53724E-02  3027   0.341E-01    0.101E+00
RMM:   3    -0.891009777242E+03    0.30680E-02   -0.76081E-03  2742   0.128E-01    0.277E-01
RMM:   4    -0.891011880346E+03   -0.21031E-02   -0.25711E-03  2399   0.522E-02    0.684E-01
RMM:   5    -0.891012415533E+03   -0.53519E-03   -0.34801E-03  2392   0.868E-02    0.945E-01
RMM:   6    -0.891010509412E+03    0.19061E-02   -0.16504E-03  2085   0.618E-02    0.480E-01
RMM:   7    -0.891010800606E+03   -0.29119E-03   -0.11223E-03  1885   0.433E-02    0.157E-01
RMM:   8    -0.891012003822E+03   -0.12032E-02   -0.41797E-04  1565   0.386E-02    0.929E-02
RMM:   9    -0.891012040606E+03   -0.36784E-04   -0.34317E-04  1414   0.264E-02
  26 F= -.91194179E+03 E0= -.91193489E+03  d E =0.812410E-02  mag=    -0.0000
       N       E                     dE             d eps       ncg     rms          rms(c)
DAV:   1    -0.891012227971E+03   -0.22415E-03   -0.96063E-03  2752   0.112E-01    0.477E-02
RMM:   2    -0.891012316049E+03   -0.88077E-04   -0.43694E-04  1531   0.381E-02
  27 F= -.91194205E+03 E0= -.91193455E+03  d E =-.256566E-03  mag=    -0.0000
       N       E                     dE             d eps       ncg     rms          rms(c)
DAV:   1    -0.890997620395E+03    0.14608E-01   -0.24234E+00  2416   0.159E+00    0.613E-01
RMM:   2    -0.891008984280E+03   -0.11364E-01   -0.80935E-02  3065   0.390E-01    0.148E+00
RMM:   3    -0.891001415592E+03    0.75687E-02   -0.12572E-02  2776   0.160E-01    0.329E-01
RMM:   4    -0.891006029725E+03   -0.46141E-02   -0.58057E-03  2841   0.714E-02    0.154E+00
RMM:   5    -0.891002819307E+03    0.32104E-02   -0.62694E-03  2533   0.119E-01    0.112E+00
RMM:   6    -0.891004121956E+03   -0.13026E-02   -0.18996E-03  2179   0.742E-02    0.764E-01
RMM:   7    -0.891002788247E+03    0.13337E-02   -0.14030E-03  2010   0.501E-02    0.132E-01
RMM:   8    -0.891004656379E+03   -0.18681E-02   -0.54250E-04  1640   0.403E-02    0.777E-02
RMM:   9    -0.891005023666E+03   -0.36729E-03   -0.43286E-04  1454   0.304E-02    0.299E-02
RMM:  10    -0.891005120269E+03   -0.96603E-04   -0.17861E-04  1423   0.259E-02
  28 F= -.91193403E+03 E0= -.91192660E+03  d E =0.801651E-02  mag=    -0.0000
       N       E                     dE             d eps       ncg     rms          rms(c)
DAV:   1    -0.891005775469E+03   -0.75180E-03   -0.23748E+00  2400   0.162E+00    0.509E-01
RMM:   2    -0.891015419360E+03   -0.96439E-02   -0.74055E-02  3038   0.392E-01    0.205E+00
RMM:   3    -0.891006401901E+03    0.90175E-02   -0.12171E-02  2809   0.155E-01    0.432E-01
RMM:   4    -0.891013503545E+03   -0.71016E-02   -0.34929E-03  2486   0.673E-02    0.789E-01
RMM:   5    -0.891011443567E+03    0.20600E-02   -0.22031E-03  2219   0.736E-02    0.213E-01
RMM:   6    -0.891013355064E+03   -0.19115E-02   -0.19266E-03  2150   0.513E-02    0.504E-01
RMM:   7    -0.891012523499E+03    0.83157E-03   -0.63088E-04  1703   0.426E-02    0.154E-01
RMM:   8    -0.891013269043E+03   -0.74554E-03   -0.50309E-04  1530   0.337E-02    0.195E-01
RMM:   9    -0.891013132504E+03    0.13654E-03   -0.19610E-04  1457   0.284E-02    0.457E-02
RMM:  10    -0.891013287183E+03   -0.15468E-03   -0.19558E-04  1410   0.225E-02    0.462E-02
RMM:  11    -0.891013337096E+03   -0.49913E-04   -0.11739E-04  1374   0.191E-02
  29 F= -.91194308E+03 E0= -.91193617E+03  d E =-.905172E-02  mag=    -0.0000
       N       E                     dE             d eps       ncg     rms          rms(c)
DAV:   1    -0.891015223015E+03   -0.19358E-02   -0.18110E-01  2432   0.454E-01    0.194E-01
RMM:   2    -0.891016625718E+03   -0.14027E-02   -0.72607E-03  2938   0.122E-01    0.961E-01
RMM:   3    -0.891013693649E+03    0.29321E-02   -0.13046E-03  2026   0.630E-02    0.122E-01
RMM:   4    -0.891015822128E+03   -0.21285E-02   -0.49206E-04  1713   0.379E-02    0.245E-01
RMM:   5    -0.891015718842E+03    0.10329E-03   -0.39128E-04  1491   0.338E-02    0.102E-01
RMM:   6    -0.891015998179E+03   -0.27934E-03   -0.47370E-04  1504   0.305E-02    0.164E-01
RMM:   7    -0.891015948336E+03    0.49842E-04   -0.40484E-04  1401   0.255E-02
  30 F= -.91194593E+03 E0= -.91193885E+03  d E =-.284432E-02  mag=    -0.0000
       N       E                     dE             d eps       ncg     rms          rms(c)
DAV:   1    -0.891016103072E+03   -0.10489E-03   -0.97737E-04  3424   0.354E-02    0.596E-02
RMM:   2    -0.891016253912E+03   -0.15084E-03   -0.20761E-04  1359   0.236E-02    0.296E-01
RMM:   3    -0.891015946089E+03    0.30782E-03   -0.10633E-04  1199   0.251E-02    0.393E-02
RMM:   4    -0.891016172145E+03   -0.22606E-03   -0.48462E-05  1161   0.103E-02    0.340E-02
RMM:   5    -0.891016264789E+03   -0.92645E-04   -0.21704E-04  1158   0.125E-02
  31 F= -.91194623E+03 E0= -.91193957E+03  d E =-.298079E-03  mag=    -0.0000
       N       E                     dE             d eps       ncg     rms          rms(c)
DAV:   1    -0.891014763553E+03    0.14086E-02   -0.56950E-02  2448   0.251E-01    0.117E-01
RMM:   2    -0.891015210204E+03   -0.44665E-03   -0.22833E-03  2394   0.708E-02    0.440E-01
RMM:   3    -0.891014442508E+03    0.76770E-03   -0.43675E-04  1517   0.394E-02    0.600E-02
RMM:   4    -0.891014976230E+03   -0.53372E-03   -0.16751E-04  1235   0.269E-02    0.117E-01
RMM:   5    -0.891015015022E+03   -0.38792E-04   -0.20137E-04  1174   0.211E-02
  32 F= -.91194493E+03 E0= -.91193810E+03  d E =0.129286E-02  mag=    -0.0000
       N       E                     dE             d eps       ncg     rms          rms(c)
DAV:   1    -0.891016651907E+03   -0.16757E-02   -0.14080E-01  2416   0.393E-01    0.238E-01
RMM:   2    -0.891018658051E+03   -0.20061E-02   -0.74271E-03  2900   0.124E-01    0.135E+00
RMM:   3    -0.891013285783E+03    0.53723E-02   -0.17450E-03  2092   0.743E-02    0.128E-01
RMM:   4    -0.891017045048E+03   -0.37593E-02   -0.63260E-04  1734   0.417E-02    0.251E-01
RMM:   5    -0.891016911549E+03    0.13350E-03   -0.25512E-04  1243   0.322E-02    0.470E-02
RMM:   6    -0.891017175226E+03   -0.26368E-03   -0.31538E-04  1267   0.233E-02    0.770E-02
RMM:   7    -0.891017255176E+03   -0.79950E-04   -0.39272E-04  1201   0.214E-02
  33 F= -.91194707E+03 E0= -.91194022E+03  d E =-.213773E-02  mag=    -0.0000
       N       E                     dE             d eps       ncg     rms          rms(c)
DAV:   1    -0.891016411443E+03    0.76378E-03   -0.75222E-02  2432   0.295E-01    0.848E-02
RMM:   2    -0.891016645580E+03   -0.23414E-03   -0.22478E-03  2330   0.757E-02    0.218E-01
RMM:   3    -0.891016521570E+03    0.12401E-03   -0.34043E-04  1270   0.322E-02    0.745E-02
RMM:   4    -0.891016630662E+03   -0.10909E-03   -0.13004E-04  1195   0.267E-02    0.649E-02
RMM:   5    -0.891016647257E+03   -0.16595E-04   -0.72019E-05  1161   0.177E-02
  34 F= -.91194672E+03 E0= -.91193989E+03  d E =0.346504E-03  mag=    -0.0000
       N       E                     dE             d eps       ncg     rms          rms(c)
DAV:   1    -0.891018634728E+03   -0.20041E-02   -0.18902E-01  2432   0.464E-01    0.188E-01
RMM:   2    -0.891019944524E+03   -0.13098E-02   -0.75931E-03  2979   0.123E-01    0.877E-01
RMM:   3    -0.891017430297E+03    0.25142E-02   -0.11627E-03  1947   0.616E-02    0.125E-01
RMM:   4    -0.891019236094E+03   -0.18058E-02   -0.45092E-04  1642   0.356E-02    0.222E-01
RMM:   5    -0.891019176601E+03    0.59493E-04   -0.30486E-04  1440   0.329E-02
  35 F= -.91194946E+03 E0= -.91194233E+03  d E =-.273907E-02  mag=    -0.0000
       N       E                     dE             d eps       ncg     rms          rms(c)
DAV:   1    -0.891020057711E+03   -0.82162E-03   -0.82498E-02  2480   0.314E-01    0.155E-01
RMM:   2    -0.891020856394E+03   -0.79868E-03   -0.27218E-03  2411   0.875E-02    0.654E-01
RMM:   3    -0.891019190172E+03    0.16662E-02   -0.54178E-04  1717   0.452E-02    0.164E-01
RMM:   4    -0.891020055558E+03   -0.86539E-03   -0.34808E-04  1561   0.308E-02    0.169E-01
RMM:   5    -0.891020262473E+03   -0.20692E-03   -0.16771E-04  1400   0.279E-02    0.626E-02
RMM:   6    -0.891020384742E+03   -0.12227E-03   -0.35041E-04  1390   0.215E-02    0.781E-02
RMM:   7    -0.891020487978E+03   -0.10324E-03   -0.66395E-04  1418   0.212E-02    0.106E-01
RMM:   8    -0.891020512239E+03   -0.24261E-04   -0.14231E-04  1336   0.216E-02
  36 F= -.91195117E+03 E0= -.91194458E+03  d E =-.170776E-02  mag=    -0.0000
       N       E                     dE             d eps       ncg     rms          rms(c)
DAV:   1    -0.891018125407E+03    0.23626E-02   -0.18298E-01  2432   0.448E-01    0.120E-01
RMM:   2    -0.891018602678E+03   -0.47727E-03   -0.44425E-03  2644   0.947E-02    0.255E-01
RMM:   3    -0.891018423645E+03    0.17903E-03   -0.53727E-04  1390   0.377E-02    0.125E-01
RMM:   4    -0.891018589818E+03   -0.16617E-03   -0.18494E-04  1242   0.274E-02    0.123E-01
RMM:   5    -0.891018630996E+03   -0.41178E-04   -0.20570E-04  1220   0.203E-02
  37 F= -.91194889E+03 E0= -.91194246E+03  d E =0.228063E-02  mag=    -0.0000
       N       E                     dE             d eps       ncg     rms          rms(c)
DAV:   1    -0.891021067451E+03   -0.24776E-02   -0.30711E-01  2464   0.559E-01    0.184E-01
RMM:   2    -0.891022329933E+03   -0.12625E-02   -0.88043E-03  2842   0.124E-01    0.705E-01
RMM:   3    -0.891020790521E+03    0.15394E-02   -0.12887E-03  1858   0.561E-02    0.131E-01
RMM:   4    -0.891021968841E+03   -0.11783E-02   -0.45294E-04  1510   0.331E-02    0.282E-01
RMM:   5    -0.891021665640E+03    0.30320E-03   -0.36287E-04  1363   0.314E-02    0.112E-01
RMM:   6    -0.891022017794E+03   -0.35215E-03   -0.43436E-04  1377   0.266E-02    0.114E-01
RMM:   7    -0.891022026609E+03   -0.88149E-05   -0.31135E-04  1229   0.223E-02
  38 F= -.91195269E+03 E0= -.91194602E+03  d E =-.379906E-02  mag=    -0.0000
       N       E                     dE             d eps       ncg     rms          rms(c)
DAV:   1    -0.891022004716E+03    0.13078E-04   -0.34200E-03  2752   0.688E-02    0.738E-02
RMM:   2    -0.891022235032E+03   -0.23032E-03   -0.36280E-04  1568   0.317E-02    0.416E-01
RMM:   3    -0.891021650738E+03    0.58429E-03   -0.16110E-04  1286   0.317E-02    0.535E-02
RMM:   4    -0.891022019459E+03   -0.36872E-03   -0.48386E-05  1177   0.143E-02    0.238E-02
RMM:   5    -0.891022100761E+03   -0.81303E-04   -0.68692E-05  1152   0.138E-02
  39 F= -.91195269E+03 E0= -.91194625E+03  d E =-.320698E-06  mag=    -0.0000
       N       E                     dE             d eps       ncg     rms          rms(c)
DAV:   1    -0.891022300940E+03   -0.28148E-03   -0.13676E-03  2720   0.412E-02    0.630E-02
RMM:   2    -0.891022431154E+03   -0.13021E-03   -0.21019E-04  1314   0.245E-02    0.278E-01
RMM:   3    -0.891022111935E+03    0.31922E-03   -0.11243E-04  1187   0.267E-02    0.393E-02
RMM:   4    -0.891022341802E+03   -0.22987E-03   -0.52382E-05  1155   0.112E-02    0.307E-02
RMM:   5    -0.891022382710E+03   -0.40908E-04   -0.38652E-05  1142   0.114E-02
  40 F= -.91195294E+03 E0= -.91194630E+03  d E =-.254111E-03  mag=    -0.0000
       N       E                     dE             d eps       ncg     rms          rms(c)
DAV:   1    -0.891021910826E+03    0.43098E-03   -0.15514E-01  2368   0.476E-01    0.134E-01
RMM:   2    -0.891022848867E+03   -0.93804E-03   -0.86856E-03  2864   0.187E-01    0.513E-01
RMM:   3    -0.891022152899E+03    0.69597E-03   -0.19340E-03  2655   0.650E-02    0.935E-02
RMM:   4    -0.891022723410E+03   -0.57051E-03   -0.50740E-04  1799   0.359E-02    0.857E-02
RMM:   5    -0.891022870424E+03   -0.14701E-03   -0.36039E-04  1484   0.344E-02    0.184E-01
RMM:   6    -0.891022847871E+03    0.22553E-04   -0.40483E-04  1485   0.347E-02
  41 F= -.91195301E+03 E0= -.91194626E+03  d E =-.637076E-04  mag=    -0.0000
       N       E                     dE             d eps       ncg     rms          rms(c)
DAV:   1    -0.891018325478E+03    0.45449E-02   -0.57854E-01  2368   0.836E-01    0.187E-01
RMM:   2    -0.891019826326E+03   -0.15008E-02   -0.17006E-02  3013   0.214E-01    0.134E-01
RMM:   3    -0.891020096278E+03   -0.26995E-03   -0.28961E-03  3057   0.653E-02    0.142E-01
RMM:   4    -0.891020137006E+03   -0.40728E-04   -0.74743E-04  1900   0.339E-02
  42 F= -.91194929E+03 E0= -.91194214E+03  d E =0.371892E-02  mag=    -0.0000
       N       E                     dE             d eps       ncg     rms          rms(c)
DAV:   1    -0.891005471573E+03    0.14625E-01   -0.30762E+00  2432   0.169E+00    0.589E-01
RMM:   2    -0.891014228065E+03   -0.87565E-02   -0.70316E-02  3021   0.327E-01    0.121E+00
RMM:   3    -0.891009782705E+03    0.44454E-02   -0.10501E-02  2639   0.136E-01    0.364E-01
RMM:   4    -0.891012663783E+03   -0.28811E-02   -0.34707E-03  2327   0.579E-02    0.906E-01
RMM:   5    -0.891013230198E+03   -0.56642E-03   -0.50252E-03  2454   0.989E-02    0.114E+00
RMM:   6    -0.891010834558E+03    0.23956E-02   -0.25700E-03  2183   0.738E-02    0.564E-01
RMM:   7    -0.891011121098E+03   -0.28654E-03   -0.12540E-03  2032   0.467E-02    0.261E-01
RMM:   8    -0.891012576437E+03   -0.14553E-02   -0.55012E-04  1612   0.418E-02    0.511E-02
RMM:   9    -0.891012657053E+03   -0.80616E-04   -0.23111E-04  1466   0.278E-02
  43 F= -.91193996E+03 E0= -.91193274E+03  d E =0.932434E-02  mag=    -0.0000
       N       E                     dE             d eps       ncg     rms          rms(c)
DAV:   1    -0.891008653584E+03    0.39229E-02   -0.50491E-01  2464   0.747E-01    0.170E-01
RMM:   2    -0.891009959880E+03   -0.13063E-02   -0.14288E-02  2958   0.191E-01    0.126E-01
RMM:   3    -0.891010270550E+03   -0.31067E-03   -0.27676E-03  2759   0.635E-02    0.273E-01
RMM:   4    -0.891010093509E+03    0.17704E-03   -0.67591E-04  1850   0.379E-02    0.997E-02
RMM:   5    -0.891010309379E+03   -0.21587E-03   -0.29683E-04  1508   0.346E-02    0.129E-01
RMM:   6    -0.891010383002E+03   -0.73623E-04   -0.57971E-04  1545   0.334E-02
  44 F= -.91193680E+03 E0= -.91192968E+03  d E =0.316731E-02  mag=     0.0000
       N       E                     dE             d eps       ncg     rms          rms(c)
DAV:   1    -0.891007642514E+03    0.26669E-02   -0.44916E-01  2480   0.654E-01    0.180E-01
RMM:   2    -0.891008651560E+03   -0.10090E-02   -0.10841E-02  2913   0.138E-01    0.235E-01
RMM:   3    -0.891008676203E+03   -0.24643E-04   -0.14130E-03  1812   0.491E-02    0.286E-01
RMM:   4    -0.891008621238E+03    0.54965E-04   -0.46652E-04  1552   0.385E-02
  45 F= -.91193437E+03 E0= -.91192654E+03  d E =0.242366E-02  mag=     0.0000
       N       E                     dE             d eps       ncg     rms          rms(c)
DAV:   1    -0.891006063568E+03    0.26126E-02   -0.51496E-01  2400   0.726E-01    0.215E-01
RMM:   2    -0.891007788167E+03   -0.17246E-02   -0.13459E-02  2944   0.165E-01    0.704E-01
RMM:   3    -0.891006050700E+03    0.17375E-02   -0.20954E-03  2215   0.628E-02    0.147E-01
RMM:   4    -0.891007400270E+03   -0.13496E-02   -0.62912E-04  1735   0.406E-02    0.112E-01
RMM:   5    -0.891007768082E+03   -0.36781E-03   -0.86011E-04  1610   0.389E-02    0.260E-01
RMM:   6    -0.891007640686E+03    0.12740E-03   -0.45367E-04  1555   0.378E-02    0.415E-02
RMM:   7    -0.891007863363E+03   -0.22268E-03   -0.27588E-04  1394   0.293E-02    0.457E-02
RMM:   8    -0.891007921874E+03   -0.58511E-04   -0.17681E-04  1346   0.255E-02
  46 F= -.91193272E+03 E0= -.91192532E+03  d E =0.165713E-02  mag=     0.0000
       N       E                     dE             d eps       ncg     rms          rms(c)
DAV:   1    -0.891005754159E+03    0.21092E-02   -0.64405E-01  2368   0.760E-01    0.312E-01
RMM:   2    -0.891009009135E+03   -0.32550E-02   -0.19152E-02  2974   0.176E-01    0.108E+00
RMM:   3    -0.891005236232E+03    0.37729E-02   -0.31619E-03  2219   0.842E-02    0.162E-01
RMM:   4    -0.891007267168E+03   -0.20309E-02   -0.11571E-03  1951   0.437E-02    0.461E-01
RMM:   5    -0.891006807644E+03    0.45952E-03   -0.41951E-04  1603   0.413E-02    0.248E-01
RMM:   6    -0.891007356496E+03   -0.54885E-03   -0.75294E-04  1665   0.339E-02    0.878E-02
RMM:   7    -0.891007484704E+03   -0.12821E-03   -0.47708E-04  1468   0.271E-02    0.111E-01
RMM:   8    -0.891007526030E+03   -0.41325E-04   -0.17835E-04  1430   0.249E-02
  47 F= -.91192727E+03 E0= -.91191990E+03  d E =0.544624E-02  mag=     0.0000
       N       E                     dE             d eps       ncg     rms          rms(c)
DAV:   1    -0.891005476316E+03    0.20084E-02   -0.94906E-01  2400   0.922E-01    0.368E-01
RMM:   2    -0.891009831639E+03   -0.43553E-02   -0.26284E-02  2930   0.190E-01    0.120E+00
RMM:   3    -0.891005312993E+03    0.45186E-02   -0.45468E-03  2335   0.995E-02    0.180E-01
RMM:   4    -0.891007645498E+03   -0.23325E-02   -0.15955E-03  2007   0.451E-02    0.438E-01
RMM:   5    -0.891007257626E+03    0.38787E-03   -0.44006E-04  1608   0.430E-02    0.265E-01
RMM:   6    -0.891007791744E+03   -0.53412E-03   -0.12312E-03  1832   0.401E-02    0.196E-01
RMM:   7    -0.891007828927E+03   -0.37183E-04   -0.47452E-04  1494   0.304E-02
  48 F= -.91192371E+03 E0= -.91191566E+03  d E =0.356258E-02  mag=     0.0000
       N       E                     dE             d eps       ncg     rms          rms(c)
DAV:   1    -0.891008197791E+03   -0.40605E-03   -0.31416E-02  2896   0.201E-01    0.468E-02
RMM:   2    -0.891008387504E+03   -0.18971E-03   -0.82764E-04  1877   0.520E-02    0.406E-02
RMM:   3    -0.891008419499E+03   -0.31995E-04   -0.18566E-04  1356   0.260E-02
  49 F= -.91192451E+03 E0= -.91191687E+03  d E =-.803969E-03  mag=     0.0000
       N       E                     dE             d eps       ncg     rms          rms(c)
DAV:   1    -0.891008941780E+03   -0.55428E-03   -0.37593E-02  2576   0.218E-01    0.643E-02
RMM:   2    -0.891009047289E+03   -0.10551E-03   -0.10519E-03  1944   0.515E-02    0.844E-02
RMM:   3    -0.891009043427E+03    0.38621E-05   -0.18156E-04  1382   0.269E-02
  50 F= -.91192518E+03 E0= -.91191764E+03  d E =-.666920E-03  mag=     0.0000
       N       E                     dE             d eps       ncg     rms          rms(c)
DAV:   1    -0.891009874461E+03   -0.82717E-03   -0.37900E-01  2432   0.668E-01    0.209E-01
RMM:   2    -0.891011006393E+03   -0.11319E-02   -0.93153E-03  2827   0.146E-01    0.570E-01
RMM:   3    -0.891009986717E+03    0.10197E-02   -0.12742E-03  2108   0.543E-02    0.161E-01
RMM:   4    -0.891010705978E+03   -0.71926E-03   -0.33955E-04  1565   0.348E-02    0.131E-01
RMM:   5    -0.891010878731E+03   -0.17275E-03   -0.64468E-04  1603   0.329E-02    0.225E-01
RMM:   6    -0.891010828019E+03    0.50711E-04   -0.60193E-04  1518   0.341E-02
  51 F= -.91192744E+03 E0= -.91191917E+03  d E =-.226405E-02  mag=     0.0000
       N       E                     dE             d eps       ncg     rms          rms(c)
DAV:   1    -0.891008806470E+03    0.20723E-02   -0.29721E-01  2464   0.592E-01    0.168E-01
RMM:   2    -0.891009756937E+03   -0.95047E-03   -0.70647E-03  2776   0.123E-01    0.527E-01
RMM:   3    -0.891008959310E+03    0.79763E-03   -0.84443E-04  1891   0.476E-02    0.164E-01
RMM:   4    -0.891009536774E+03   -0.57746E-03   -0.25664E-04  1339   0.328E-02    0.820E-02
RMM:   5    -0.891009610462E+03   -0.73688E-04   -0.34857E-04  1262   0.234E-02
  52 F= -.91192579E+03 E0= -.91191788E+03  d E =0.164737E-02  mag=     0.0000
       N       E                     dE             d eps       ncg     rms          rms(c)
DAV:   1    -0.891007853269E+03    0.16835E-02   -0.21543E-01  2432   0.502E-01    0.221E-01
RMM:   2    -0.891009396397E+03   -0.15431E-02   -0.64282E-03  2708   0.116E-01    0.115E+00
RMM:   3    -0.891005415366E+03    0.39810E-02   -0.15271E-03  2086   0.656E-02    0.160E-01
RMM:   4    -0.891008300227E+03   -0.28849E-02   -0.45580E-04  1629   0.361E-02    0.157E-01
RMM:   5    -0.891008425773E+03   -0.12555E-03   -0.33936E-04  1426   0.297E-02    0.263E-01
RMM:   6    -0.891008328325E+03    0.97449E-04   -0.41492E-04  1440   0.271E-02
  53 F= -.91192416E+03 E0= -.91191690E+03  d E =0.163684E-02  mag=     0.0000
       N       E                     dE             d eps       ncg     rms          rms(c)
DAV:   1    -0.891009383288E+03   -0.95751E-03   -0.42921E-01  2368   0.711E-01    0.163E-01
RMM:   2    -0.891010383442E+03   -0.10002E-02   -0.10492E-02  2824   0.157E-01    0.291E-01
RMM:   3    -0.891010243923E+03    0.13952E-03   -0.11499E-03  2039   0.495E-02    0.210E-01
RMM:   4    -0.891010297356E+03   -0.53433E-04   -0.27205E-04  1291   0.362E-02
  54 F= -.91192667E+03 E0= -.91191914E+03  d E =-.250830E-02  mag=     0.0000
       N       E                     dE             d eps       ncg     rms          rms(c)
DAV:   1    -0.891011217686E+03   -0.97376E-03   -0.20337E-01  2432   0.475E-01    0.207E-01
RMM:   2    -0.891012117022E+03   -0.89934E-03   -0.54357E-03  2647   0.101E-01    0.662E-01
RMM:   3    -0.891010673548E+03    0.14435E-02   -0.96149E-04  1924   0.537E-02    0.141E-01
RMM:   4    -0.891011640265E+03   -0.96672E-03   -0.34636E-04  1576   0.297E-02    0.154E-01
RMM:   5    -0.891011900999E+03   -0.26073E-03   -0.47695E-04  1536   0.317E-02    0.382E-01
RMM:   6    -0.891011478851E+03    0.42215E-03   -0.70479E-04  1572   0.363E-02    0.254E-01
RMM:   7    -0.891011746005E+03   -0.26715E-03   -0.15266E-04  1382   0.266E-02    0.313E-02
RMM:   8    -0.891011859742E+03   -0.11374E-03   -0.59059E-05  1283   0.133E-02    0.185E-02
RMM:   9    -0.891011882123E+03   -0.22382E-04   -0.63705E-05  1258   0.130E-02
  55 F= -.91192861E+03 E0= -.91192102E+03  d E =-.194771E-02  mag=     0.0000
       N       E                     dE             d eps       ncg     rms          rms(c)
DAV:   1    -0.891012515122E+03   -0.65538E-03   -0.18672E-01  2432   0.454E-01    0.144E-01
RMM:   2    -0.891013235619E+03   -0.72050E-03   -0.49073E-03  2618   0.102E-01    0.527E-01
RMM:   3    -0.891012210135E+03    0.10255E-02   -0.66478E-04  1799   0.459E-02    0.809E-02
RMM:   4    -0.891012935971E+03   -0.72584E-03   -0.25833E-04  1483   0.305E-02    0.111E-01
RMM:   5    -0.891012981473E+03   -0.45503E-04   -0.17395E-04  1398   0.230E-02
  56 F= -.91193008E+03 E0= -.91192282E+03  d E =-.147080E-02  mag=     0.0000
       N       E                     dE             d eps       ncg     rms          rms(c)
DAV:   1    -0.891013465428E+03   -0.52946E-03   -0.29083E-02  2720   0.174E-01    0.119E-01
RMM:   2    -0.891013824922E+03   -0.35949E-03   -0.10753E-03  1907   0.442E-02    0.479E-01
RMM:   3    -0.891012936883E+03    0.88804E-03   -0.30114E-04  1484   0.365E-02    0.634E-02
RMM:   4    -0.891013567445E+03   -0.63056E-03   -0.14594E-04  1250   0.207E-02    0.102E-01
RMM:   5    -0.891013599112E+03   -0.31668E-04   -0.16291E-04  1191   0.177E-02
  57 F= -.91193082E+03 E0= -.91192324E+03  d E =-.737074E-03  mag=     0.0000
       N       E                     dE             d eps       ncg     rms          rms(c)
DAV:   1    -0.891014309764E+03   -0.74232E-03   -0.13608E-01  2432   0.368E-01    0.923E-02
RMM:   2    -0.891014601059E+03   -0.29130E-03   -0.31926E-03  2222   0.734E-02    0.751E-02
RMM:   3    -0.891014654072E+03   -0.53013E-04   -0.33752E-04  1320   0.328E-02
  58 F= -.91193214E+03 E0= -.91192397E+03  d E =-.131984E-02  mag=     0.0000
       N       E                     dE             d eps       ncg     rms          rms(c)
DAV:   1    -0.891015257339E+03   -0.65628E-03   -0.51804E-01  2400   0.701E-01    0.275E-01
RMM:   2    -0.891017500161E+03   -0.22428E-02   -0.13899E-02  2752   0.152E-01    0.909E-01
RMM:   3    -0.891014941607E+03    0.25586E-02   -0.20921E-03  2177   0.743E-02    0.158E-01
RMM:   4    -0.891016532965E+03   -0.15914E-02   -0.72249E-04  1793   0.352E-02    0.372E-01
RMM:   5    -0.891016327764E+03    0.20520E-03   -0.46061E-04  1620   0.376E-02    0.354E-01
RMM:   6    -0.891016387666E+03   -0.59901E-04   -0.70846E-04  1593   0.359E-02
  59 F= -.91193445E+03 E0= -.91192629E+03  d E =-.230494E-02  mag=    -0.0000
       N       E                     dE             d eps       ncg     rms          rms(c)
DAV:   1    -0.891006592845E+03    0.97349E-02   -0.26945E+00  2368   0.162E+00    0.450E-01
RMM:   2    -0.891014568853E+03   -0.79760E-02   -0.66066E-02  2962   0.321E-01    0.169E+00
RMM:   3    -0.891007993189E+03    0.65757E-02   -0.75567E-03  2612   0.134E-01    0.481E-01
RMM:   4    -0.891012624531E+03   -0.46313E-02   -0.22811E-03  2060   0.591E-02    0.474E-01
RMM:   5    -0.891011980867E+03    0.64366E-03   -0.12247E-03  1988   0.552E-02    0.333E-01
RMM:   6    -0.891012631600E+03   -0.65073E-03   -0.12395E-03  1872   0.435E-02    0.292E-01
RMM:   7    -0.891012618455E+03    0.13145E-04   -0.36771E-04  1374   0.349E-02
  60 F= -.91192936E+03 E0= -.91192255E+03  d E =0.508562E-02  mag=     0.0000
       N       E                     dE             d eps       ncg     rms          rms(c)
DAV:   1    -0.891013100568E+03   -0.46897E-03   -0.83673E-02  2464   0.305E-01    0.159E-01
RMM:   2    -0.891014205435E+03   -0.11049E-02   -0.30947E-03  2505   0.823E-02    0.709E-01
RMM:   3    -0.891012356603E+03    0.18488E-02   -0.66007E-04  1786   0.504E-02    0.703E-02
RMM:   4    -0.891013493916E+03   -0.11373E-02   -0.27768E-04  1523   0.293E-02    0.141E-01
RMM:   5    -0.891013558948E+03   -0.65032E-04   -0.14477E-04  1270   0.262E-02
  61 F= -.91193054E+03 E0= -.91192310E+03  d E =-.118236E-02  mag=     0.0000
       N       E                     dE             d eps       ncg     rms          rms(c)
DAV:   1    -0.891013708679E+03   -0.21476E-03   -0.14717E-03  2592   0.472E-02    0.332E-02
RMM:   2    -0.891013763326E+03   -0.54647E-04   -0.11033E-04  1192   0.203E-02
  62 F= -.91193079E+03 E0= -.91192269E+03  d E =-.248470E-03  mag=     0.0000
       N       E                     dE             d eps       ncg     rms          rms(c)
DAV:   1    -0.891013736347E+03   -0.27668E-04   -0.13724E-03  1952   0.435E-02    0.577E-02
RMM:   2    -0.891013954946E+03   -0.21860E-03   -0.20704E-04  1311   0.268E-02    0.308E-01
RMM:   3    -0.891013586252E+03    0.36869E-03   -0.10234E-04  1172   0.253E-02    0.504E-02
RMM:   4    -0.891013842071E+03   -0.25582E-03   -0.36250E-05  1129   0.113E-02    0.276E-02
RMM:   5    -0.891013912602E+03   -0.70532E-04   -0.90326E-05  1110   0.102E-02
  63 F= -.91193097E+03 E0= -.91192322E+03  d E =-.179824E-03  mag=     0.0000
       N       E                     dE             d eps       ncg     rms          rms(c)
DAV:   1    -0.891014156091E+03   -0.31402E-03   -0.76051E-03  2416   0.908E-02    0.336E-02
RMM:   2    -0.891014220777E+03   -0.64686E-04   -0.22292E-04  1227   0.227E-02
  64 F= -.91193135E+03 E0= -.91192338E+03  d E =-.375312E-03  mag=     0.0000
       N       E                     dE             d eps       ncg     rms          rms(c)
DAV:   1    -0.891014285289E+03   -0.12920E-03   -0.87001E-01  2400   0.970E-01    0.367E-01
RMM:   2    -0.891018508174E+03   -0.42229E-02   -0.26167E-02  2865   0.244E-01    0.121E+00
RMM:   3    -0.891013957723E+03    0.45505E-02   -0.42352E-03  2588   0.103E-01    0.155E-01
RMM:   4    -0.891016367667E+03   -0.24099E-02   -0.13381E-03  1999   0.463E-02    0.384E-01
RMM:   5    -0.891016216190E+03    0.15148E-03   -0.48255E-04  1642   0.453E-02    0.364E-01
RMM:   6    -0.891016341493E+03   -0.12530E-03   -0.77250E-04  1708   0.428E-02    0.262E-01
RMM:   7    -0.891016477958E+03   -0.13646E-03   -0.48066E-04  1473   0.343E-02    0.138E-01
RMM:   8    -0.891016526324E+03   -0.48366E-04   -0.11994E-04  1298   0.234E-02
  65 F= -.91193448E+03 E0= -.91192640E+03  d E =-.313618E-02  mag=    -0.0000
       N       E                     dE             d eps       ncg     rms          rms(c)
DAV:   1    -0.891006724385E+03    0.97536E-02   -0.25529E+00  2400   0.165E+00    0.618E-01
RMM:   2    -0.891022487431E+03   -0.15763E-01   -0.76714E-02  2966   0.397E-01    0.386E+00
RMM:   3    -0.890995468506E+03    0.27019E-01   -0.13985E-02  2840   0.195E-01    0.527E-01
RMM:   4    -0.891012730560E+03   -0.17262E-01   -0.40883E-03  2297   0.863E-02    0.580E-01
RMM:   5    -0.891011772180E+03    0.95838E-03   -0.98357E-04  1922   0.622E-02    0.171E-01
RMM:   6    -0.891012756375E+03   -0.98420E-03   -0.14771E-03  1932   0.453E-02    0.140E-01
RMM:   7    -0.891012902141E+03   -0.14577E-03   -0.34138E-04  1453   0.382E-02    0.292E-01
RMM:   8    -0.891012677277E+03    0.22486E-03   -0.36056E-04  1391   0.315E-02    0.698E-02
RMM:   9    -0.891012886433E+03   -0.20916E-03   -0.12202E-04  1283   0.229E-02    0.247E-02
RMM:  10    -0.891012978900E+03   -0.92468E-04   -0.17965E-04  1285   0.209E-02
  66 F= -.91192959E+03 E0= -.91192178E+03  d E =0.488897E-02  mag=     0.0000
       N       E                     dE             d eps       ncg     rms          rms(c)
DAV:   1    -0.891012371299E+03    0.51513E-03   -0.16007E+00  2400   0.130E+00    0.455E-01
RMM:   2    -0.891018781456E+03   -0.64102E-02   -0.45857E-02  2883   0.316E-01    0.132E+00
RMM:   3    -0.891013353588E+03    0.54279E-02   -0.66300E-03  2705   0.125E-01    0.190E-01
RMM:   4    -0.891016086280E+03   -0.27327E-02   -0.19661E-03  2080   0.502E-02    0.402E-01
RMM:   5    -0.891016185172E+03   -0.98892E-04   -0.81165E-04  1827   0.536E-02
  67 F= -.91193385E+03 E0= -.91192817E+03  d E =-.426037E-02  mag=    -0.0000
       N       E                     dE             d eps       ncg     rms          rms(c)
DAV:   1    -0.891014446047E+03    0.16402E-02   -0.11656E-01  2448   0.365E-01    0.221E-01
RMM:   2    -0.891016364943E+03   -0.19189E-02   -0.54429E-03  2725   0.103E-01    0.820E-01
RMM:   3    -0.891014057134E+03    0.23078E-02   -0.11631E-03  1950   0.624E-02    0.122E-01
RMM:   4    -0.891015505032E+03   -0.14479E-02   -0.36585E-04  1457   0.313E-02    0.132E-01
RMM:   5    -0.891015472131E+03    0.32901E-04   -0.95227E-05  1186   0.235E-02
  68 F= -.91193284E+03 E0= -.91192550E+03  d E =0.101431E-02  mag=     0.0000
       N       E                     dE             d eps       ncg     rms          rms(c)
DAV:   1    -0.891016252623E+03   -0.74759E-03   -0.34629E-01  2400   0.602E-01    0.328E-01
RMM:   2    -0.891019384004E+03   -0.31314E-02   -0.13018E-02  2897   0.154E-01    0.121E+00
RMM:   3    -0.891014498123E+03    0.48859E-02   -0.27010E-03  2230   0.894E-02    0.119E-01
RMM:   4    -0.891016910781E+03   -0.24127E-02   -0.94185E-04  1823   0.408E-02    0.331E-01
RMM:   5    -0.891016789454E+03    0.12133E-03   -0.20928E-04  1278   0.369E-02    0.684E-02
RMM:   6    -0.891017104899E+03   -0.31544E-03   -0.28410E-04  1305   0.241E-02    0.145E-01
RMM:   7    -0.891017215289E+03   -0.11039E-03   -0.42550E-04  1314   0.277E-02    0.268E-01
RMM:   8    -0.891017070526E+03    0.14476E-03   -0.17405E-04  1234   0.294E-02    0.980E-02
RMM:   9    -0.891017242139E+03   -0.17161E-03   -0.14112E-04  1172   0.160E-02    0.423E-02
RMM:  10    -0.891017270236E+03   -0.28097E-04   -0.74114E-05  1148   0.140E-02
  69 F= -.91193509E+03 E0= -.91192737E+03  d E =-.225180E-02  mag=    -0.0000
       N       E                     dE             d eps       ncg     rms          rms(c)
DAV:   1    -0.891017581568E+03   -0.33943E-03   -0.15198E-02  2464   0.123E-01    0.547E-02
RMM:   2    -0.891017696514E+03   -0.11495E-03   -0.45495E-04  1464   0.301E-02    0.249E-01
RMM:   3    -0.891017465806E+03    0.23071E-03   -0.11845E-04  1180   0.262E-02    0.300E-02
RMM:   4    -0.891017644611E+03   -0.17881E-03   -0.59915E-05  1135   0.139E-02    0.416E-02
RMM:   5    -0.891017671807E+03   -0.27196E-04   -0.47696E-05  1125   0.130E-02
  70 F= -.91193559E+03 E0= -.91192780E+03  d E =-.495007E-03  mag=    -0.0000
       N       E                     dE             d eps       ncg     rms          rms(c)
DAV:   1    -0.891018265238E+03   -0.62063E-03   -0.53717E-02  2432   0.231E-01    0.597E-02
RMM:   2    -0.891018381093E+03   -0.11586E-03   -0.13159E-03  1736   0.480E-02    0.713E-02
RMM:   3    -0.891018378824E+03    0.22696E-05   -0.18815E-04  1206   0.284E-02
  71 F= -.91193642E+03 E0= -.91192887E+03  d E =-.835053E-03  mag=    -0.0000
       N       E                     dE             d eps       ncg     rms          rms(c)
DAV:   1    -0.891019464270E+03   -0.10832E-02   -0.20470E-01  2400   0.430E-01    0.218E-01
RMM:   2    -0.891020680326E+03   -0.12161E-02   -0.67961E-03  2577   0.954E-02    0.781E-01
RMM:   3    -0.891018735324E+03    0.19450E-02   -0.11959E-03  1930   0.615E-02    0.152E-01
RMM:   4    -0.891019990210E+03   -0.12549E-02   -0.46100E-04  1636   0.294E-02    0.272E-01
RMM:   5    -0.891019876188E+03    0.11402E-03   -0.32192E-04  1486   0.324E-02    0.278E-01
RMM:   6    -0.891020014566E+03   -0.13838E-03   -0.45836E-04  1436   0.325E-02    0.271E-01
RMM:   7    -0.891019967365E+03    0.47201E-04   -0.29124E-04  1322   0.274E-02
  72 F= -.91193816E+03 E0= -.91193029E+03  d E =-.174197E-02  mag=    -0.0000
       N       E                     dE             d eps       ncg     rms          rms(c)
DAV:   1    -0.891014768323E+03    0.52462E-02   -0.98130E-01  2368   0.945E-01    0.408E-01
RMM:   2    -0.891020646431E+03   -0.58781E-02   -0.30642E-02  2903   0.220E-01    0.225E+00
RMM:   3    -0.891009621231E+03    0.11025E-01   -0.54832E-03  2459   0.119E-01    0.386E-01
RMM:   4    -0.891017134158E+03   -0.75129E-02   -0.17674E-03  1993   0.580E-02    0.489E-01
RMM:   5    -0.891016252080E+03    0.88208E-03   -0.63565E-04  1613   0.483E-02    0.164E-01
RMM:   6    -0.891017069765E+03   -0.81768E-03   -0.71302E-04  1531   0.331E-02    0.415E-02
RMM:   7    -0.891017195143E+03   -0.12538E-03   -0.31843E-04  1219   0.259E-02    0.201E-01
RMM:   8    -0.891017060352E+03    0.13479E-03   -0.13060E-04  1199   0.203E-02    0.101E-01
RMM:   9    -0.891017139332E+03   -0.78980E-04   -0.12028E-04  1155   0.166E-02
  73 F= -.91193496E+03 E0= -.91192745E+03  d E =0.320190E-02  mag=    -0.0000
       N       E                     dE             d eps       ncg     rms          rms(c)
DAV:   1    -0.891017205747E+03   -0.14540E-03   -0.36010E-03  2464   0.676E-02    0.528E-02
RMM:   2    -0.891017323848E+03   -0.11810E-03   -0.22616E-04  1285   0.307E-02    0.292E-01
RMM:   3    -0.891016965522E+03    0.35833E-03   -0.10291E-04  1244   0.266E-02    0.576E-02
RMM:   4    -0.891017203958E+03   -0.23844E-03   -0.47731E-05  1191   0.141E-02    0.255E-02
RMM:   5    -0.891017254921E+03   -0.50962E-04   -0.51182E-05  1159   0.141E-02
  74 F= -.91193512E+03 E0= -.91192749E+03  d E =-.158218E-03  mag=    -0.0000
       N       E                     dE             d eps       ncg     rms          rms(c)
DAV:   1    -0.891017627712E+03   -0.42375E-03   -0.19871E-02  2368   0.140E-01    0.523E-02
RMM:   2    -0.891017742136E+03   -0.11442E-03   -0.52253E-04  1441   0.306E-02    0.257E-01
RMM:   3    -0.891017508246E+03    0.23389E-03   -0.11203E-04  1164   0.254E-02    0.323E-02
RMM:   4    -0.891017689432E+03   -0.18119E-03   -0.61949E-05  1120   0.129E-02    0.355E-02
RMM:   5    -0.891017719514E+03   -0.30081E-04   -0.43567E-05  1111   0.116E-02
  75 F= -.91193569E+03 E0= -.91192811E+03  d E =-.569249E-03  mag=    -0.0000
       N       E                     dE             d eps       ncg     rms          rms(c)
DAV:   1    -0.891018456324E+03   -0.76689E-03   -0.23513E-01  2416   0.491E-01    0.253E-01
RMM:   2    -0.891020387154E+03   -0.19308E-02   -0.84009E-03  2759   0.125E-01    0.100E+00
RMM:   3    -0.891017060447E+03    0.33267E-02   -0.16634E-03  2072   0.721E-02    0.905E-02
RMM:   4    -0.891018926024E+03   -0.18656E-02   -0.58572E-04  1692   0.356E-02    0.279E-01
RMM:   5    -0.891018771067E+03    0.15496E-03   -0.16431E-04  1214   0.312E-02    0.566E-02
RMM:   6    -0.891019037775E+03   -0.26671E-03   -0.24173E-04  1223   0.216E-02    0.141E-01
RMM:   7    -0.891019105359E+03   -0.67584E-04   -0.34333E-04  1222   0.236E-02
  76 F= -.91193743E+03 E0= -.91192906E+03  d E =-.174133E-02  mag=    -0.0000
       N       E                     dE             d eps       ncg     rms          rms(c)
DAV:   1    -0.891016591924E+03    0.24459E-02   -0.42145E-01  2368   0.652E-01    0.270E-01
RMM:   2    -0.891019433234E+03   -0.28413E-02   -0.12802E-02  2867   0.146E-01    0.149E+00
RMM:   3    -0.891013370608E+03    0.60626E-02   -0.23100E-03  2207   0.829E-02    0.218E-01
RMM:   4    -0.891017617393E+03   -0.42468E-02   -0.66851E-04  1635   0.425E-02    0.263E-01
RMM:   5    -0.891017446597E+03    0.17080E-03   -0.29920E-04  1344   0.353E-02    0.192E-01
RMM:   6    -0.891017645172E+03   -0.19857E-03   -0.32790E-04  1297   0.274E-02    0.123E-01
RMM:   7    -0.891017717243E+03   -0.72071E-04   -0.28623E-04  1201   0.231E-02
  77 F= -.91193550E+03 E0= -.91192811E+03  d E =0.192861E-02  mag=    -0.0000
       N       E                     dE             d eps       ncg     rms          rms(c)
DAV:   1    -0.891017824996E+03   -0.17982E-03   -0.21172E-03  2512   0.570E-02    0.596E-02
RMM:   2    -0.891018034463E+03   -0.20947E-03   -0.29628E-04  1507   0.324E-02    0.437E-01
RMM:   3    -0.891017378732E+03    0.65573E-03   -0.13692E-04  1380   0.328E-02    0.852E-02
RMM:   4    -0.891017763379E+03   -0.38465E-03   -0.44300E-05  1287   0.147E-02    0.310E-02
RMM:   5    -0.891017871334E+03   -0.10795E-03   -0.61397E-05  1246   0.136E-02    0.291E-02
RMM:   6    -0.891017923058E+03   -0.51725E-04   -0.82094E-05  1210   0.129E-02
  78 F= -.91193568E+03 E0= -.91192794E+03  d E =-.179034E-03  mag=    -0.0000
       N       E                     dE             d eps       ncg     rms          rms(c)
DAV:   1    -0.891018206616E+03   -0.33528E-03   -0.16190E-02  2576   0.128E-01    0.559E-02
RMM:   2    -0.891018335865E+03   -0.12925E-03   -0.46305E-04  1488   0.320E-02    0.267E-01
RMM:   3    -0.891018078331E+03    0.25753E-03   -0.11700E-04  1190   0.271E-02    0.312E-02
RMM:   4    -0.891018267625E+03   -0.18929E-03   -0.59676E-05  1130   0.125E-02    0.500E-02
RMM:   5    -0.891018289144E+03   -0.21519E-04   -0.33976E-05  1107   0.118E-02
  79 F= -.91193617E+03 E0= -.91192848E+03  d E =-.484643E-03  mag=    -0.0000
       N       E                     dE             d eps       ncg     rms          rms(c)
DAV:   1    -0.891018555213E+03   -0.28759E-03   -0.88030E-03  2400   0.948E-02    0.495E-02
RMM:   2    -0.891018674282E+03   -0.11907E-03   -0.28466E-04  1298   0.238E-02    0.299E-01
RMM:   3    -0.891018350449E+03    0.32383E-03   -0.98776E-05  1164   0.248E-02    0.541E-02
RMM:   4    -0.891018564252E+03   -0.21380E-03   -0.44633E-05  1109   0.107E-02    0.232E-02
RMM:   5    -0.891018628428E+03   -0.64176E-04   -0.60335E-05  1105   0.111E-02
  80 F= -.91193656E+03 E0= -.91192902E+03  d E =-.393388E-03  mag=    -0.0000
       N       E                     dE             d eps       ncg     rms          rms(c)
DAV:   1    -0.891019050769E+03   -0.48652E-03   -0.27334E-02  2384   0.165E-01    0.132E-01
RMM:   2    -0.891019596902E+03   -0.54613E-03   -0.14824E-03  2070   0.490E-02    0.616E-01
RMM:   3    -0.891018169820E+03    0.14271E-02   -0.39996E-04  1540   0.421E-02    0.479E-02
RMM:   4    -0.891019077581E+03   -0.90776E-03   -0.15315E-04  1203   0.201E-02    0.115E-01
RMM:   5    -0.891019110579E+03   -0.32998E-04   -0.67257E-05  1136   0.189E-02
  81 F= -.91193716E+03 E0= -.91192945E+03  d E =-.597821E-03  mag=    -0.0000
       N       E                     dE             d eps       ncg     rms          rms(c)
DAV:   1    -0.891017957160E+03    0.11204E-02   -0.13343E-01  2368   0.360E-01    0.181E-01
RMM:   2    -0.891019245558E+03   -0.12884E-02   -0.47309E-03  2477   0.887E-02    0.106E+00
RMM:   3    -0.891015726135E+03    0.35194E-02   -0.98087E-04  1894   0.586E-02    0.103E-01
RMM:   4    -0.891018243800E+03   -0.25177E-02   -0.34184E-04  1422   0.305E-02    0.203E-01
RMM:   5    -0.891018170904E+03    0.72896E-04   -0.13824E-04  1167   0.249E-02
  82 F= -.91193596E+03 E0= -.91192833E+03  d E =0.119398E-02  mag=    -0.0000
       N       E                     dE             d eps       ncg     rms          rms(c)
DAV:   1    -0.891018777533E+03   -0.53373E-03   -0.51110E-02  2400   0.223E-01    0.972E-02
RMM:   2    -0.891019227888E+03   -0.45036E-03   -0.16515E-03  2039   0.532E-02    0.507E-01
RMM:   3    -0.891018182192E+03    0.10457E-02   -0.26647E-04  1372   0.359E-02    0.772E-02
RMM:   4    -0.891018849468E+03   -0.66728E-03   -0.13004E-04  1180   0.188E-02    0.110E-01
RMM:   5    -0.891018907786E+03   -0.58318E-04   -0.77852E-05  1128   0.182E-02
  83 F= -.91193687E+03 E0= -.91192921E+03  d E =-.908550E-03  mag=    -0.0000
       N       E                     dE             d eps       ncg     rms          rms(c)
DAV:   1    -0.891019504671E+03   -0.65520E-03   -0.66873E-02  2368   0.252E-01    0.868E-02
RMM:   2    -0.891019725439E+03   -0.22077E-03   -0.16673E-03  1940   0.521E-02    0.272E-01
RMM:   3    -0.891019489047E+03    0.23639E-03   -0.23094E-04  1243   0.307E-02    0.773E-02
RMM:   4    -0.891019671913E+03   -0.18287E-03   -0.12032E-04  1162   0.201E-02    0.899E-02
RMM:   5    -0.891019675489E+03   -0.35758E-05   -0.66916E-05  1137   0.149E-02
  84 F= -.91193779E+03 E0= -.91193013E+03  d E =-.919875E-03  mag=    -0.0000
       N       E                     dE             d eps       ncg     rms          rms(c)
DAV:   1    -0.891019986180E+03   -0.31427E-03   -0.77550E-03  2512   0.852E-02    0.505E-02
RMM:   2    -0.891020113651E+03   -0.12747E-03   -0.25651E-04  1331   0.225E-02    0.322E-01
RMM:   3    -0.891019741170E+03    0.37248E-03   -0.10660E-04  1178   0.241E-02    0.627E-02
RMM:   4    -0.891019973805E+03   -0.23263E-03   -0.42243E-05  1084   0.101E-02    0.257E-02
RMM:   5    -0.891020045231E+03   -0.71426E-04   -0.52257E-05  1045   0.104E-02
  85 F= -.91193822E+03 E0= -.91193063E+03  d E =-.427590E-03  mag=    -0.0000
       N       E                     dE             d eps       ncg     rms          rms(c)
DAV:   1    -0.891020037108E+03   -0.63303E-04   -0.10544E-03  1840   0.310E-02    0.832E-02
RMM:   2    -0.891020289652E+03   -0.25254E-03   -0.33655E-04  1525   0.252E-02    0.449E-01
RMM:   3    -0.891019477595E+03    0.81206E-03   -0.15895E-04  1219   0.327E-02    0.444E-02
RMM:   4    -0.891020017714E+03   -0.54012E-03   -0.43691E-05  1031   0.100E-02    0.266E-02
RMM:   5    -0.891020071193E+03   -0.53480E-04   -0.26965E-05   986   0.880E-03
  86 F= -.91193823E+03 E0= -.91193044E+03  d E =-.101188E-04  mag=    -0.0000
       N       E                     dE             d eps       ncg     rms          rms(c)
DAV:   1    -0.891019421906E+03    0.59581E-03   -0.54654E-02  2368   0.235E-01    0.131E-01
RMM:   2    -0.891020052527E+03   -0.63062E-03   -0.22953E-03  2286   0.622E-02    0.735E-01
RMM:   3    -0.891018305699E+03    0.17468E-02   -0.47563E-04  1599   0.437E-02    0.817E-02
RMM:   4    -0.891019543133E+03   -0.12374E-02   -0.17537E-04  1231   0.237E-02    0.135E-01
RMM:   5    -0.891019534992E+03    0.81408E-05   -0.93788E-05  1143   0.192E-02
  87 F= -.91193747E+03 E0= -.91192979E+03  d E =0.764006E-03  mag=    -0.0000
       N       E                     dE             d eps       ncg     rms          rms(c)
DAV:   1    -0.891018631031E+03    0.91210E-03   -0.10023E-01  2384   0.323E-01    0.120E-01
RMM:   2    -0.891018969923E+03   -0.33889E-03   -0.29537E-03  2329   0.694E-02    0.347E-01
RMM:   3    -0.891018649268E+03    0.32065E-03   -0.34497E-04  1401   0.368E-02    0.156E-01
RMM:   4    -0.891018876700E+03   -0.22743E-03   -0.16626E-04  1218   0.247E-02    0.153E-01
RMM:   5    -0.891018837549E+03    0.39151E-04   -0.19037E-04  1232   0.187E-02
  88 F= -.91193653E+03 E0= -.91192886E+03  d E =0.933754E-03  mag=    -0.0000
       N       E                     dE             d eps       ncg     rms          rms(c)
DAV:   1    -0.891018766548E+03    0.11015E-03   -0.54974E-02  2416   0.285E-01    0.130E-01
RMM:   2    -0.891019150329E+03   -0.38378E-03   -0.24736E-03  2494   0.739E-02    0.446E-01
RMM:   3    -0.891018555680E+03    0.59465E-03   -0.31558E-04  1475   0.382E-02    0.139E-01
RMM:   4    -0.891018973892E+03   -0.41821E-03   -0.12575E-04  1249   0.254E-02    0.162E-01
RMM:   5    -0.891018943601E+03    0.30290E-04   -0.19318E-04  1276   0.216E-02
  89 F= -.91193651E+03 E0= -.91192898E+03  d E =0.207027E-04  mag=    -0.0000
       N       E                     dE             d eps       ncg     rms          rms(c)
DAV:   1    -0.891019368127E+03   -0.39424E-03   -0.16260E-01  2384   0.435E-01    0.156E-01
RMM:   2    -0.891020005770E+03   -0.63764E-03   -0.37559E-03  2439   0.917E-02    0.505E-01
RMM:   3    -0.891019053985E+03    0.95178E-03   -0.60658E-04  1732   0.421E-02    0.117E-01
RMM:   4    -0.891019672516E+03   -0.61853E-03   -0.25550E-04  1327   0.296E-02    0.104E-01
RMM:   5    -0.891019896231E+03   -0.22372E-03   -0.41870E-04  1319   0.283E-02    0.256E-01
RMM:   6    -0.891019667050E+03    0.22918E-03   -0.24514E-04  1328   0.263E-02    0.902E-02
RMM:   7    -0.891019861801E+03   -0.19475E-03   -0.11685E-04  1207   0.218E-02    0.312E-02
RMM:   8    -0.891019878473E+03   -0.16672E-04   -0.48311E-05  1154   0.129E-02
  90 F= -.91193758E+03 E0= -.91193044E+03  d E =-.106802E-02  mag=    -0.0000
       N       E                     dE             d eps       ncg     rms          rms(c)
DAV:   1    -0.891020167541E+03   -0.30574E-03   -0.15080E-01  2368   0.435E-01    0.229E-01
RMM:   2    -0.891021598018E+03   -0.14305E-02   -0.71904E-03  2745   0.124E-01    0.826E-01
RMM:   3    -0.891019203980E+03    0.23940E-02   -0.10431E-03  1909   0.606E-02    0.117E-01
RMM:   4    -0.891020699305E+03   -0.14953E-02   -0.48607E-04  1547   0.319E-02    0.378E-01
RMM:   5    -0.891020455301E+03    0.24400E-03   -0.36486E-04  1472   0.337E-02    0.341E-01
RMM:   6    -0.891020466579E+03   -0.11277E-04   -0.26656E-04  1255   0.276E-02
  91 F= -.91193854E+03 E0= -.91193164E+03  d E =-.964182E-03  mag=    -0.0000
       N       E                     dE             d eps       ncg     rms          rms(c)
DAV:   1    -0.891021164555E+03   -0.70925E-03   -0.30469E-01  2368   0.553E-01    0.129E-01
RMM:   2    -0.891021890425E+03   -0.72587E-03   -0.68593E-03  2592   0.107E-01    0.147E-01
RMM:   3    -0.891021912858E+03   -0.22432E-04   -0.64754E-04  1572   0.389E-02
  92 F= -.91194028E+03 E0= -.91193238E+03  d E =-.173485E-02  mag=    -0.0000
       N       E                     dE             d eps       ncg     rms          rms(c)
DAV:   1    -0.891022512441E+03   -0.62202E-03   -0.16310E-01  2464   0.396E-01    0.198E-01
RMM:   2    -0.891023601171E+03   -0.10887E-02   -0.54189E-03  2534   0.957E-02    0.709E-01
RMM:   3    -0.891021949724E+03    0.16514E-02   -0.86491E-04  1851   0.545E-02    0.108E-01
RMM:   4    -0.891023128610E+03   -0.11789E-02   -0.45432E-04  1632   0.283E-02    0.423E-01
RMM:   5    -0.891022569301E+03    0.55931E-03   -0.27177E-04  1491   0.307E-02    0.109E-01
RMM:   6    -0.891023096892E+03   -0.52759E-03   -0.32340E-04  1434   0.231E-02    0.552E-02
RMM:   7    -0.891023138066E+03   -0.41174E-04   -0.21484E-04  1303   0.189E-02
  93 F= -.91194181E+03 E0= -.91193414E+03  d E =-.152855E-02  mag=    -0.0000
       N       E                     dE             d eps       ncg     rms          rms(c)
DAV:   1    -0.891021647301E+03    0.14496E-02   -0.17479E-01  2432   0.411E-01    0.129E-01
RMM:   2    -0.891022232742E+03   -0.58544E-03   -0.43777E-03  2381   0.833E-02    0.481E-01
RMM:   3    -0.891021543191E+03    0.68955E-03   -0.48964E-04  1607   0.430E-02    0.114E-01
RMM:   4    -0.891022044972E+03   -0.50178E-03   -0.20615E-04  1383   0.277E-02    0.122E-01
RMM:   5    -0.891022018335E+03    0.26638E-04   -0.13894E-04  1213   0.200E-02
  94 F= -.91194049E+03 E0= -.91193295E+03  d E =0.131773E-02  mag=    -0.0000
       N       E                     dE             d eps       ncg     rms          rms(c)
DAV:   1    -0.891017370170E+03    0.46748E-02   -0.10297E+00  2368   0.982E-01    0.343E-01
RMM:   2    -0.891021492965E+03   -0.41228E-02   -0.27299E-02  2895   0.193E-01    0.159E+00
RMM:   3    -0.891015151985E+03    0.63410E-02   -0.38500E-03  2303   0.101E-01    0.309E-01
RMM:   4    -0.891019639830E+03   -0.44878E-02   -0.12581E-03  1919   0.468E-02    0.386E-01
RMM:   5    -0.891019104868E+03    0.53496E-03   -0.48228E-04  1665   0.418E-02    0.201E-01
RMM:   6    -0.891019662708E+03   -0.55784E-03   -0.62689E-04  1592   0.309E-02    0.133E-01
RMM:   7    -0.891019725051E+03   -0.62344E-04   -0.17650E-04  1326   0.260E-02
  95 F= -.91193762E+03 E0= -.91193087E+03  d E =0.287274E-02  mag=    -0.0000
       N       E                     dE             d eps       ncg     rms          rms(c)
DAV:   1    -0.891016261938E+03    0.34008E-02   -0.69230E-01  2368   0.793E-01    0.316E-01
RMM:   2    -0.891019958974E+03   -0.36970E-02   -0.20121E-02  2783   0.165E-01    0.164E+00
RMM:   3    -0.891013047537E+03    0.69114E-02   -0.33037E-03  2251   0.949E-02    0.238E-01
RMM:   4    -0.891017904385E+03   -0.48568E-02   -0.11434E-03  1919   0.449E-02    0.371E-01
RMM:   5    -0.891017372418E+03    0.53197E-03   -0.31440E-04  1537   0.367E-02    0.874E-02
RMM:   6    -0.891017939400E+03   -0.56698E-03   -0.52087E-04  1557   0.263E-02    0.427E-02
RMM:   7    -0.891018019477E+03   -0.80077E-04   -0.24780E-04  1399   0.216E-02
  96 F= -.91193551E+03 E0= -.91192884E+03  d E =0.210425E-02  mag=     0.0000
       N       E                     dE             d eps       ncg     rms          rms(c)
DAV:   1    -0.891018559019E+03   -0.61962E-03   -0.19567E-01  2560   0.439E-01    0.103E-01
RMM:   2    -0.891018988459E+03   -0.42944E-03   -0.43249E-03  2334   0.833E-02    0.141E-01
RMM:   3    -0.891018958632E+03    0.29827E-04   -0.36386E-04  1469   0.358E-02
  97 F= -.91193672E+03 E0= -.91192918E+03  d E =-.120490E-02  mag=    -0.0000
       N       E                     dE             d eps       ncg     rms          rms(c)
DAV:   1    -0.891018885514E+03    0.10294E-03   -0.27105E-03  2896   0.662E-02    0.581E-02
RMM:   2    -0.891019001990E+03   -0.11648E-03   -0.17512E-04  1369   0.240E-02    0.168E-01
RMM:   3    -0.891018937522E+03    0.64468E-04   -0.73778E-05  1183   0.218E-02
  98 F= -.91193676E+03 E0= -.91192970E+03  d E =-.454412E-04  mag=    -0.0000
       N       E                     dE             d eps       ncg     rms          rms(c)
DAV:   1    -0.891019237701E+03   -0.23571E-03   -0.11249E-02  2432   0.105E-01    0.138E-01
RMM:   2    -0.891019800305E+03   -0.56260E-03   -0.11508E-03  1980   0.463E-02    0.627E-01
RMM:   3    -0.891018315693E+03    0.14846E-02   -0.35134E-04  1531   0.410E-02    0.746E-02
RMM:   4    -0.891019197602E+03   -0.88191E-03   -0.13316E-04  1186   0.176E-02    0.128E-01
RMM:   5    -0.891019274882E+03   -0.77280E-04   -0.13456E-04  1129   0.191E-02
  99 F= -.91193717E+03 E0= -.91192996E+03  d E =-.407941E-03  mag=    -0.0000
       N       E                     dE             d eps       ncg     rms          rms(c)
DAV:   1    -0.891018748045E+03    0.44956E-03   -0.58778E-02  2336   0.247E-01    0.937E-02
RMM:   2    -0.891019023676E+03   -0.27563E-03   -0.17028E-03  2090   0.573E-02    0.375E-01
RMM:   3    -0.891018579468E+03    0.44421E-03   -0.21968E-04  1296   0.334E-02    0.770E-02
RMM:   4    -0.891018912761E+03   -0.33329E-03   -0.10306E-04  1180   0.212E-02    0.988E-02
RMM:   5    -0.891018906168E+03    0.65931E-05   -0.91200E-05  1155   0.156E-02
 100 F= -.91193659E+03 E0= -.91192951E+03  d E =0.579604E-03  mag=    -0.0000
