       N       E                     dE             d eps       ncg     rms          rms(c)
DAV:   1    -0.890895824369E+03   -0.89090E+03   -0.18165E-03  2872   0.769E-02    0.777E-02
RMM:   2    -0.890895711934E+03    0.11244E-03   -0.71158E-04  1765   0.339E-02    0.566E-02
RMM:   3    -0.890895695370E+03    0.16564E-04   -0.30026E-04  1488   0.258E-02
   1 F= -.91183078E+03 E0= -.91183078E+03  d E =-.911831E+03  mag=     0.0000
       N       E                     dE             d eps       ncg     rms          rms(c)
DAV:   1    -0.890899591582E+03   -0.38796E-02   -0.60910E-01  2448   0.754E-01    0.288E-01
RMM:   2    -0.890901081193E+03   -0.14896E-02   -0.22218E-02  3014   0.222E-01    0.214E-01
RMM:   3    -0.890901064632E+03    0.16560E-04   -0.30682E-03  2792   0.654E-02    0.161E-01
RMM:   4    -0.890900945657E+03    0.11898E-03   -0.16879E-03  2070   0.533E-02    0.815E-02
RMM:   5    -0.890901010685E+03   -0.65028E-04   -0.44315E-04  1505   0.390E-02
   2 F= -.91183567E+03 E0= -.91183567E+03  d E =-.488961E-02  mag=     0.0000
       N       E                     dE             d eps       ncg     rms          rms(c)
DAV:   1    -0.890901141004E+03   -0.19535E-03   -0.19479E-02  3104   0.140E-01    0.574E-02
RMM:   2    -0.890901171187E+03   -0.30183E-04   -0.63274E-04  1584   0.431E-02
   3 F= -.91183591E+03 E0= -.91183591E+03  d E =-.512539E-02  mag=     0.0000
       N       E                     dE             d eps       ncg     rms          rms(c)
DAV:   1    -0.890904947670E+03   -0.38067E-02   -0.43097E-01  2408   0.839E-01    0.160E-01
RMM:   2    -0.890906283608E+03   -0.13359E-02   -0.16173E-02  2884   0.255E-01    0.147E-01
RMM:   3    -0.890906599548E+03   -0.31594E-03   -0.34814E-03  3045   0.735E-02    0.134E-01
RMM:   4    -0.890906604160E+03   -0.46122E-05   -0.70803E-04  1948   0.437E-02
   4 F= -.91184090E+03 E0= -.91184090E+03  d E =-.499880E-02  mag=     0.0000
       N       E                     dE             d eps       ncg     rms          rms(c)
DAV:   1    -0.890907147493E+03   -0.54795E-03   -0.12911E+00  2416   0.145E+00    0.308E-01
RMM:   2    -0.890910706700E+03   -0.35592E-02   -0.47862E-02  2928   0.443E-01    0.287E-01
RMM:   3    -0.890911791542E+03   -0.10848E-02   -0.12239E-02  3543   0.133E-01    0.258E-01
RMM:   4    -0.890911969157E+03   -0.17762E-03   -0.33109E-03  3169   0.696E-02    0.212E-01
RMM:   5    -0.890912496411E+03   -0.52725E-03   -0.30695E-03  3208   0.669E-02    0.122E-01
RMM:   6    -0.890912333363E+03    0.16305E-03   -0.84882E-04  2081   0.429E-02    0.798E-02
RMM:   7    -0.890912271599E+03    0.61763E-04   -0.17705E-03  2507   0.540E-02    0.376E-02
RMM:   8    -0.890912287657E+03   -0.16058E-04   -0.27411E-04  1541   0.400E-02
   5 F= -.91184583E+03 E0= -.91184583E+03  d E =-.992933E-02  mag=     0.0000
       N       E                     dE             d eps       ncg     rms          rms(c)
DAV:   1    -0.890912535058E+03   -0.26346E-03   -0.42058E-02  3048   0.263E-01    0.640E-02
RMM:   2    -0.890912671790E+03   -0.13673E-03   -0.16038E-03  2456   0.871E-02    0.533E-02
RMM:   3    -0.890912708018E+03   -0.36228E-04   -0.33360E-04  1540   0.319E-02
   6 F= -.91184612E+03 E0= -.91184612E+03  d E =-.102177E-01  mag=     0.0000
       N       E                     dE             d eps       ncg     rms          rms(c)
DAV:   1    -0.890915003138E+03   -0.23313E-02   -0.44846E-01  2400   0.841E-01    0.136E-01
RMM:   2    -0.890916113611E+03   -0.11105E-02   -0.12866E-02  2834   0.229E-01    0.122E-01
RMM:   3    -0.890916359236E+03   -0.24563E-03   -0.26847E-03  2777   0.646E-02    0.110E-01
RMM:   4    -0.890916370215E+03   -0.10979E-04   -0.55593E-04  1812   0.455E-02
   7 F= -.91184981E+03 E0= -.91184981E+03  d E =-.368672E-02  mag=     0.0000
       N       E                     dE             d eps       ncg     rms          rms(c)
DAV:   1    -0.890910181773E+03    0.61775E-02   -0.40050E+00  2384   0.250E+00    0.412E-01
RMM:   2    -0.890919524772E+03   -0.93430E-02   -0.10980E-01  2954   0.646E-01    0.348E-01
RMM:   3    -0.890921457791E+03   -0.19330E-02   -0.22327E-02  3357   0.181E-01    0.310E-01
RMM:   4    -0.890921476893E+03   -0.19102E-04   -0.44984E-03  3009   0.986E-02    0.226E-01
RMM:   5    -0.890922064831E+03   -0.58794E-03   -0.38168E-03  3075   0.760E-02    0.110E-01
RMM:   6    -0.890921927627E+03    0.13720E-03   -0.80810E-04  2120   0.451E-02    0.715E-02
RMM:   7    -0.890921919787E+03    0.78402E-05   -0.14494E-03  2462   0.501E-02    0.402E-02
RMM:   8    -0.890921934367E+03   -0.14580E-04   -0.21429E-04  1500   0.380E-02
   8 F= -.91185545E+03 E0= -.91185545E+03  d E =-.932643E-02  mag=     0.0000
       N       E                     dE             d eps       ncg     rms          rms(c)
DAV:   1    -0.890921934865E+03   -0.15078E-04   -0.71549E-01  2624   0.982E-01    0.204E-01
RMM:   2    -0.890923506684E+03   -0.15718E-02   -0.20016E-02  2915   0.245E-01    0.147E-01
RMM:   3    -0.890923757479E+03   -0.25079E-03   -0.34290E-03  2876   0.700E-02    0.119E-01
RMM:   4    -0.890923780381E+03   -0.22902E-04   -0.94772E-04  1951   0.500E-02
   9 F= -.91185693E+03 E0= -.91185693E+03  d E =-.148060E-02  mag=     0.0000
       N       E                     dE             d eps       ncg     rms          rms(c)
DAV:   1    -0.890923825528E+03   -0.68049E-04   -0.33876E-02  3160   0.217E-01    0.474E-02
RMM:   2    -0.890923902070E+03   -0.76542E-04   -0.95783E-04  1942   0.617E-02
  10 F= -.91185713E+03 E0= -.91185713E+03  d E =-.167929E-02  mag=     0.0000
       N       E                     dE             d eps       ncg     rms          rms(c)
DAV:   1    -0.890924809518E+03   -0.98399E-03   -0.60772E-01  2368   0.923E-01    0.163E-01
RMM:   2    -0.890926213052E+03   -0.14035E-02   -0.17045E-02  2916   0.246E-01    0.119E-01
RMM:   3    -0.890926521634E+03   -0.30858E-03   -0.32411E-03  2722   0.673E-02    0.107E-01
RMM:   4    -0.890926550653E+03   -0.29019E-04   -0.55319E-04  1694   0.448E-02
  11 F= -.91185921E+03 E0= -.91185921E+03  d E =-.208176E-02  mag=     0.0000
       N       E                     dE             d eps       ncg     rms          rms(c)
DAV:   1    -0.890926668167E+03   -0.14653E-03   -0.68692E-01  2400   0.984E-01    0.191E-01
RMM:   2    -0.890928139033E+03   -0.14709E-02   -0.19649E-02  2903   0.266E-01    0.159E-01
RMM:   3    -0.890928548366E+03   -0.40933E-03   -0.44677E-03  3090   0.759E-02    0.140E-01
RMM:   4    -0.890928608275E+03   -0.59909E-04   -0.76949E-04  2021   0.468E-02
  12 F= -.91186066E+03 E0= -.91186066E+03  d E =-.353431E-02  mag=     0.0000
       N       E                     dE             d eps       ncg     rms          rms(c)
DAV:   1    -0.890922343820E+03    0.62045E-02   -0.27548E+00  2400   0.197E+00    0.370E-01
RMM:   2    -0.890928289190E+03   -0.59454E-02   -0.76154E-02  2915   0.528E-01    0.291E-01
RMM:   3    -0.890929842080E+03   -0.15529E-02   -0.17013E-02  3386   0.151E-01    0.252E-01
RMM:   4    -0.890930027365E+03   -0.18528E-03   -0.33950E-03  3029   0.833E-02    0.179E-01
RMM:   5    -0.890930483025E+03   -0.45566E-03   -0.23530E-03  2935   0.574E-02    0.933E-02
RMM:   6    -0.890930501610E+03   -0.18586E-04   -0.52667E-04  1779   0.382E-02
  13 F= -.91186135E+03 E0= -.91186135E+03  d E =-.421834E-02  mag=     0.0000
       N       E                     dE             d eps       ncg     rms          rms(c)
DAV:   1    -0.890928850205E+03    0.16328E-02   -0.54596E-01  2656   0.878E-01    0.148E-01
RMM:   2    -0.890930021244E+03   -0.11710E-02   -0.14085E-02  2785   0.229E-01    0.118E-01
RMM:   3    -0.890930216419E+03   -0.19518E-03   -0.23531E-03  2411   0.644E-02    0.106E-01
RMM:   4    -0.890930217141E+03   -0.72239E-06   -0.36354E-04  1574   0.453E-02
  14 F= -.91186160E+03 E0= -.91186160E+03  d E =-.446972E-02  mag=     0.0000
       N       E                     dE             d eps       ncg     rms          rms(c)
DAV:   1    -0.890930542730E+03   -0.32631E-03   -0.55223E-01  2424   0.806E-01    0.184E-01
RMM:   2    -0.890931895792E+03   -0.13531E-02   -0.17293E-02  2887   0.235E-01    0.118E-01
RMM:   3    -0.890932131616E+03   -0.23582E-03   -0.27729E-03  2645   0.691E-02    0.947E-02
RMM:   4    -0.890932181077E+03   -0.49461E-04   -0.62108E-04  1760   0.468E-02
  15 F= -.91186329E+03 E0= -.91186329E+03  d E =-.168883E-02  mag=     0.0000
       N       E                     dE             d eps       ncg     rms          rms(c)
DAV:   1    -0.890932358660E+03   -0.22704E-03   -0.92801E-03  3400   0.116E-01    0.550E-02
RMM:   2    -0.890932364491E+03   -0.58303E-05   -0.32172E-04  1512   0.411E-02
  16 F= -.91186344E+03 E0= -.91186344E+03  d E =-.183688E-02  mag=     0.0000
       N       E                     dE             d eps       ncg     rms          rms(c)
DAV:   1    -0.890933236663E+03   -0.87800E-03   -0.15032E-01  2440   0.412E-01    0.113E-01
RMM:   2    -0.890933592172E+03   -0.35551E-03   -0.50089E-03  2796   0.125E-01    0.809E-02
RMM:   3    -0.890933698543E+03   -0.10637E-03   -0.94167E-04  1926   0.400E-02    0.656E-02
RMM:   4    -0.890933747091E+03   -0.48549E-04   -0.23534E-04  1490   0.412E-02
  17 F= -.91186475E+03 E0= -.91186475E+03  d E =-.131531E-02  mag=     0.0000
       N       E                     dE             d eps       ncg     rms          rms(c)
DAV:   1    -0.890933356395E+03    0.34215E-03   -0.70898E-01  2408   0.894E-01    0.219E-01
RMM:   2    -0.890934920755E+03   -0.15644E-02   -0.21682E-02  2904   0.257E-01    0.147E-01
RMM:   3    -0.890935382171E+03   -0.46142E-03   -0.48628E-03  3167   0.776E-02    0.118E-01
RMM:   4    -0.890935483428E+03   -0.10126E-03   -0.82166E-04  1920   0.424E-02    0.809E-02
RMM:   5    -0.890935621695E+03   -0.13827E-03   -0.59009E-04  1732   0.414E-02    0.413E-02
RMM:   6    -0.890935664211E+03   -0.42516E-04   -0.18734E-04  1468   0.353E-02
  18 F= -.91186652E+03 E0= -.91186652E+03  d E =-.308576E-02  mag=     0.0000
       N       E                     dE             d eps       ncg     rms          rms(c)
DAV:   1    -0.890925408423E+03    0.10213E-01   -0.28426E+00  2368   0.179E+00    0.432E-01
RMM:   2    -0.890932117284E+03   -0.67089E-02   -0.87520E-02  2965   0.515E-01    0.282E-01
RMM:   3    -0.890933736649E+03   -0.16194E-02   -0.18000E-02  3482   0.152E-01    0.229E-01
RMM:   4    -0.890933954305E+03   -0.21766E-03   -0.39637E-03  3174   0.741E-02    0.157E-01
RMM:   5    -0.890934435240E+03   -0.48094E-03   -0.25548E-03  2803   0.541E-02    0.810E-02
RMM:   6    -0.890934457248E+03   -0.22008E-04   -0.55702E-04  1762   0.410E-02
  19 F= -.91186502E+03 E0= -.91186502E+03  d E =-.158548E-02  mag=     0.0000
       N       E                     dE             d eps       ncg     rms          rms(c)
DAV:   1    -0.890931471143E+03    0.29641E-02   -0.16683E+00  2400   0.137E+00    0.330E-01
RMM:   2    -0.890935080206E+03   -0.36091E-02   -0.47570E-02  2879   0.384E-01    0.217E-01
RMM:   3    -0.890935824793E+03   -0.74459E-03   -0.87392E-03  3072   0.112E-01    0.167E-01
RMM:   4    -0.890935937045E+03   -0.11225E-03   -0.12548E-03  2047   0.556E-02    0.101E-01
RMM:   5    -0.890936142308E+03   -0.20526E-03   -0.10232E-03  1974   0.458E-02    0.454E-02
RMM:   6    -0.890936155068E+03   -0.12760E-04   -0.14489E-04  1383   0.329E-02
  20 F= -.91186694E+03 E0= -.91186694E+03  d E =-.350818E-02  mag=     0.0000
       N       E                     dE             d eps       ncg     rms          rms(c)
DAV:   1    -0.890936563389E+03   -0.42108E-03   -0.36350E-01  2440   0.640E-01    0.143E-01
RMM:   2    -0.890937283403E+03   -0.72001E-03   -0.98630E-03  2779   0.173E-01    0.881E-02
RMM:   3    -0.890937433831E+03   -0.15043E-03   -0.15548E-03  2048   0.533E-02    0.690E-02
RMM:   4    -0.890937490147E+03   -0.56316E-04   -0.33655E-04  1475   0.442E-02
  21 F= -.91186816E+03 E0= -.91186816E+03  d E =-.122086E-02  mag=     0.0000
       N       E                     dE             d eps       ncg     rms          rms(c)
DAV:   1    -0.890937437728E+03   -0.38974E-05   -0.45412E-01  2408   0.718E-01    0.172E-01
RMM:   2    -0.890938327321E+03   -0.88959E-03   -0.13261E-02  2928   0.196E-01    0.112E-01
RMM:   3    -0.890938592620E+03   -0.26530E-03   -0.25094E-03  2534   0.605E-02    0.885E-02
RMM:   4    -0.890938697115E+03   -0.10450E-03   -0.42510E-04  1627   0.405E-02    0.660E-02
RMM:   5    -0.890938814690E+03   -0.11758E-03   -0.41036E-04  1532   0.359E-02    0.330E-02
RMM:   6    -0.890938860306E+03   -0.45616E-04   -0.17594E-04  1418   0.328E-02
  22 F= -.91186941E+03 E0= -.91186941E+03  d E =-.246323E-02  mag=     0.0000
       N       E                     dE             d eps       ncg     rms          rms(c)
DAV:   1    -0.890934978126E+03    0.38366E-02   -0.18247E+00  2384   0.144E+00    0.331E-01
RMM:   2    -0.890938978020E+03   -0.39999E-02   -0.54492E-02  2943   0.398E-01    0.203E-01
RMM:   3    -0.890939954277E+03   -0.97626E-03   -0.10336E-02  3470   0.118E-01    0.163E-01
RMM:   4    -0.890940204759E+03   -0.25048E-03   -0.23181E-03  2808   0.572E-02    0.112E-01
RMM:   5    -0.890940574979E+03   -0.37022E-03   -0.15634E-03  2293   0.472E-02    0.557E-02
RMM:   6    -0.890940593263E+03   -0.18284E-04   -0.30847E-04  1554   0.387E-02
  23 F= -.91187088E+03 E0= -.91187088E+03  d E =-.394060E-02  mag=     0.0000
       N       E                     dE             d eps       ncg     rms          rms(c)
DAV:   1    -0.890941494660E+03   -0.91968E-03   -0.48423E-01  2528   0.699E-01    0.173E-01
RMM:   2    -0.890942423059E+03   -0.92840E-03   -0.13729E-02  2966   0.182E-01    0.112E-01
RMM:   3    -0.890942618694E+03   -0.19563E-03   -0.20169E-03  2391   0.547E-02    0.924E-02
RMM:   4    -0.890942762905E+03   -0.14421E-03   -0.61916E-04  1719   0.477E-02    0.612E-02
RMM:   5    -0.890942875036E+03   -0.11213E-03   -0.46095E-04  1544   0.363E-02    0.306E-02
RMM:   6    -0.890942903101E+03   -0.28065E-04   -0.16636E-04  1425   0.366E-02
  24 F= -.91187296E+03 E0= -.91187296E+03  d E =-.207308E-02  mag=     0.0000
       N       E                     dE             d eps       ncg     rms          rms(c)
DAV:   1    -0.890936880496E+03    0.59945E-02   -0.43503E+00  2368   0.209E+00    0.514E-01
RMM:   2    -0.890944570153E+03   -0.76897E-02   -0.11116E-01  2952   0.530E-01    0.330E-01
RMM:   3    -0.890946534502E+03   -0.19643E-02   -0.21957E-02  3471   0.159E-01    0.259E-01
RMM:   4    -0.890947111856E+03   -0.57735E-03   -0.42427E-03  3094   0.775E-02    0.161E-01
RMM:   5    -0.890947796502E+03   -0.68465E-03   -0.26304E-03  2652   0.546E-02    0.737E-02
RMM:   6    -0.890947803537E+03   -0.70347E-05   -0.50693E-04  1698   0.387E-02
  25 F= -.91187715E+03 E0= -.91187715E+03  d E =-.626315E-02  mag=     0.0000
       N       E                     dE             d eps       ncg     rms          rms(c)
DAV:   1    -0.890905867099E+03    0.41929E-01   -0.17390E+01  2368   0.418E+00    0.103E+00
RMM:   2    -0.890938607310E+03   -0.32740E-01   -0.46222E-01  2984   0.106E+00    0.658E-01
RMM:   3    -0.890945041630E+03   -0.64343E-02   -0.72084E-02  3480   0.305E-01    0.527E-01
RMM:   4    -0.890947277516E+03   -0.22359E-02   -0.16158E-02  3298   0.154E-01    0.318E-01
RMM:   5    -0.890949269579E+03   -0.19921E-02   -0.87305E-03  3434   0.929E-02    0.152E-01
RMM:   6    -0.890949465554E+03   -0.19597E-03   -0.24514E-03  2948   0.559E-02    0.102E-01
RMM:   7    -0.890949491804E+03   -0.26250E-04   -0.19166E-03  2671   0.479E-02    0.697E-02
RMM:   8    -0.890949565553E+03   -0.73749E-04   -0.77197E-04  1845   0.405E-02
  26 F= -.91187749E+03 E0= -.91187749E+03  d E =-.660508E-02  mag=     0.0000
       N       E                     dE             d eps       ncg     rms          rms(c)
DAV:   1    -0.890935448298E+03    0.14044E-01   -0.62281E+00  2368   0.250E+00    0.613E-01
RMM:   2    -0.890946520205E+03   -0.11072E-01   -0.15731E-01  2905   0.625E-01    0.390E-01
RMM:   3    -0.890948709437E+03   -0.21892E-02   -0.24081E-02  3250   0.178E-01    0.308E-01
RMM:   4    -0.890949217087E+03   -0.50765E-03   -0.41591E-03  2588   0.870E-02    0.180E-01
RMM:   5    -0.890950145793E+03   -0.92871E-03   -0.33541E-03  2416   0.633E-02    0.857E-02
RMM:   6    -0.890950024731E+03    0.12106E-03   -0.35726E-04  1503   0.408E-02    0.606E-02
RMM:   7    -0.890950001399E+03    0.23333E-04   -0.90805E-04  1769   0.357E-02
  27 F= -.91187878E+03 E0= -.91187878E+03  d E =-.789112E-02  mag=     0.0000
       N       E                     dE             d eps       ncg     rms          rms(c)
DAV:   1    -0.890946927240E+03    0.30975E-02   -0.15523E+00  2368   0.125E+00    0.312E-01
RMM:   2    -0.890949444499E+03   -0.25173E-02   -0.39681E-02  2923   0.313E-01    0.194E-01
RMM:   3    -0.890950090234E+03   -0.64573E-03   -0.73932E-03  2890   0.900E-02    0.157E-01
RMM:   4    -0.890950075553E+03    0.14680E-04   -0.99700E-04  1784   0.485E-02
  28 F= -.91187842E+03 E0= -.91187842E+03  d E =-.754015E-02  mag=     0.0000
       N       E                     dE             d eps       ncg     rms          rms(c)
DAV:   1    -0.890949632415E+03    0.45782E-03   -0.29828E-01  2608   0.550E-01    0.107E-01
RMM:   2    -0.890950373140E+03   -0.74072E-03   -0.83448E-03  2706   0.145E-01    0.743E-02
RMM:   3    -0.890950422698E+03   -0.49558E-04   -0.10599E-03  1683   0.433E-02    0.684E-02
RMM:   4    -0.890950393703E+03    0.28995E-04   -0.31249E-04  1384   0.387E-02
  29 F= -.91187892E+03 E0= -.91187892E+03  d E =-.803923E-02  mag=     0.0000
       N       E                     dE             d eps       ncg     rms          rms(c)
DAV:   1    -0.890950669803E+03   -0.24711E-03   -0.42292E-01  2432   0.639E-01    0.141E-01
RMM:   2    -0.890951542791E+03   -0.87299E-03   -0.11228E-02  2851   0.162E-01    0.896E-02
RMM:   3    -0.890951631058E+03   -0.88267E-04   -0.12595E-03  1860   0.481E-02    0.757E-02
RMM:   4    -0.890951693388E+03   -0.62330E-04   -0.41809E-04  1514   0.448E-02
  30 F= -.91188003E+03 E0= -.91188003E+03  d E =-.110276E-02  mag=     0.0000
       N       E                     dE             d eps       ncg     rms          rms(c)
DAV:   1    -0.890951674475E+03   -0.43417E-04   -0.53390E-01  2400   0.723E-01    0.196E-01
RMM:   2    -0.890952396053E+03   -0.72158E-03   -0.13933E-02  2972   0.181E-01    0.127E-01
RMM:   3    -0.890952690767E+03   -0.29471E-03   -0.29979E-03  2369   0.565E-02    0.974E-02
RMM:   4    -0.890952773583E+03   -0.82817E-04   -0.39373E-04  1524   0.404E-02
  31 F= -.91188088E+03 E0= -.91188088E+03  d E =-.195939E-02  mag=     0.0000
       N       E                     dE             d eps       ncg     rms          rms(c)
DAV:   1    -0.890949033405E+03    0.36574E-02   -0.21393E+00  2416   0.144E+00    0.380E-01
RMM:   2    -0.890952464867E+03   -0.34315E-02   -0.55280E-02  3015   0.358E-01    0.249E-01
RMM:   3    -0.890953321335E+03   -0.85647E-03   -0.94119E-03  3352   0.107E-01    0.193E-01
RMM:   4    -0.890953725981E+03   -0.40465E-03   -0.19776E-03  2444   0.557E-02    0.122E-01
RMM:   5    -0.890954072741E+03   -0.34676E-03   -0.10686E-03  2028   0.483E-02    0.577E-02
RMM:   6    -0.890954151050E+03   -0.78309E-04   -0.28178E-04  1548   0.362E-02
  32 F= -.91188181E+03 E0= -.91188181E+03  d E =-.288989E-02  mag=     0.0000
       N       E                     dE             d eps       ncg     rms          rms(c)
DAV:   1    -0.890954928017E+03   -0.85528E-03   -0.21591E-01  2712   0.437E-01    0.122E-01
RMM:   2    -0.890955286824E+03   -0.35881E-03   -0.61465E-03  2792   0.111E-01    0.780E-02
RMM:   3    -0.890955398739E+03   -0.11192E-03   -0.10322E-03  1721   0.382E-02    0.663E-02
RMM:   4    -0.890955465753E+03   -0.67013E-04   -0.28535E-04  1461   0.398E-02
  33 F= -.91188303E+03 E0= -.91188303E+03  d E =-.121831E-02  mag=     0.0000
       N       E                     dE             d eps       ncg     rms          rms(c)
DAV:   1    -0.890954973830E+03    0.42491E-03   -0.19362E+00  2384   0.130E+00    0.358E-01
RMM:   2    -0.890957743771E+03   -0.27699E-02   -0.47714E-02  3034   0.302E-01    0.226E-01
RMM:   3    -0.890958477404E+03   -0.73363E-03   -0.82847E-03  3229   0.939E-02    0.178E-01
RMM:   4    -0.890958694985E+03   -0.21758E-03   -0.16726E-03  2108   0.493E-02    0.119E-01
RMM:   5    -0.890959209231E+03   -0.51425E-03   -0.19839E-03  2156   0.530E-02    0.629E-02
RMM:   6    -0.890959185226E+03    0.24005E-04   -0.27106E-04  1489   0.361E-02
  34 F= -.91188646E+03 E0= -.91188646E+03  d E =-.464876E-02  mag=     0.0000
       N       E                     dE             d eps       ncg     rms          rms(c)
DAV:   1    -0.890946724928E+03    0.12484E-01   -0.77700E+00  2384   0.260E+00    0.703E-01
RMM:   2    -0.890959819082E+03   -0.13094E-01   -0.19910E-01  3037   0.606E-01    0.443E-01
RMM:   3    -0.890962263192E+03   -0.24441E-02   -0.27955E-02  3472   0.180E-01    0.361E-01
RMM:   4    -0.890963242125E+03   -0.97893E-03   -0.78102E-03  3172   0.102E-01    0.206E-01
RMM:   5    -0.890964434373E+03   -0.11922E-02   -0.41438E-03  2804   0.644E-02    0.116E-01
RMM:   6    -0.890964288993E+03    0.14538E-03   -0.10251E-03  1963   0.460E-02    0.690E-02
RMM:   7    -0.890964311495E+03   -0.22502E-04   -0.15243E-03  2105   0.448E-02    0.417E-02
RMM:   8    -0.890964343760E+03   -0.32265E-04   -0.30957E-04  1488   0.383E-02
  35 F= -.91189104E+03 E0= -.91189104E+03  d E =-.922935E-02  mag=     0.0000
       N       E                     dE             d eps       ncg     rms          rms(c)
DAV:   1    -0.890964819028E+03   -0.50753E-03   -0.11073E+00  2512   0.946E-01    0.280E-01
RMM:   2    -0.890966560937E+03   -0.17419E-02   -0.28148E-02  3000   0.223E-01    0.195E-01
RMM:   3    -0.890966938883E+03   -0.37795E-03   -0.49984E-03  2811   0.715E-02    0.151E-01
RMM:   4    -0.890967129385E+03   -0.19050E-03   -0.11300E-03  1780   0.502E-02    0.769E-02
RMM:   5    -0.890967307335E+03   -0.17795E-03   -0.59577E-04  1565   0.398E-02    0.373E-02
RMM:   6    -0.890967322057E+03   -0.14722E-04   -0.17533E-04  1460   0.336E-02
  36 F= -.91189392E+03 E0= -.91189392E+03  d E =-.287976E-02  mag=     0.0000
       N       E                     dE             d eps       ncg     rms          rms(c)
DAV:   1    -0.890967373078E+03   -0.65742E-04   -0.30777E-03  3192   0.577E-02    0.316E-02
RMM:   2    -0.890967390178E+03   -0.17101E-04   -0.19285E-04  1345   0.297E-02
  37 F= -.91189399E+03 E0= -.91189399E+03  d E =-.294336E-02  mag=     0.0000
       N       E                     dE             d eps       ncg     rms          rms(c)
DAV:   1    -0.890967810096E+03   -0.43702E-03   -0.88435E-01  2368   0.912E-01    0.232E-01
RMM:   2    -0.890969276670E+03   -0.14666E-02   -0.22817E-02  2890   0.229E-01    0.163E-01
RMM:   3    -0.890969596944E+03   -0.32027E-03   -0.35001E-03  2744   0.679E-02    0.132E-01
RMM:   4    -0.890969819741E+03   -0.22280E-03   -0.75633E-04  1720   0.479E-02    0.734E-02
RMM:   5    -0.890970008471E+03   -0.18873E-03   -0.56647E-04  1616   0.400E-02    0.332E-02
RMM:   6    -0.890970019992E+03   -0.11521E-04   -0.13687E-04  1431   0.327E-02
  38 F= -.91189656E+03 E0= -.91189656E+03  d E =-.257589E-02  mag=     0.0000
       N       E                     dE             d eps       ncg     rms          rms(c)
DAV:   1    -0.890956270130E+03    0.13738E-01   -0.79555E+00  2368   0.274E+00    0.699E-01
RMM:   2    -0.890970313726E+03   -0.14044E-01   -0.20693E-01  2912   0.686E-01    0.471E-01
RMM:   3    -0.890973294545E+03   -0.29808E-02   -0.33470E-02  3446   0.205E-01    0.385E-01
RMM:   4    -0.890974270516E+03   -0.97597E-03   -0.73419E-03  3164   0.108E-01    0.231E-01
RMM:   5    -0.890975616932E+03   -0.13464E-02   -0.51503E-03  3188   0.718E-02    0.116E-01
RMM:   6    -0.890975505243E+03    0.11169E-03   -0.11059E-03  2033   0.449E-02    0.763E-02
RMM:   7    -0.890975514289E+03   -0.90456E-05   -0.15863E-03  2214   0.463E-02    0.444E-02
RMM:   8    -0.890975546079E+03   -0.31791E-04   -0.26143E-04  1494   0.368E-02
  39 F= -.91190193E+03 E0= -.91190193E+03  d E =-.794133E-02  mag=     0.0000
       N       E                     dE             d eps       ncg     rms          rms(c)
DAV:   1    -0.890975719761E+03   -0.20547E-03   -0.15590E+00  2464   0.116E+00    0.350E-01
RMM:   2    -0.890978373354E+03   -0.26536E-02   -0.40874E-02  2987   0.279E-01    0.254E-01
RMM:   3    -0.890978765990E+03   -0.39264E-03   -0.64358E-03  3283   0.861E-02    0.195E-01
RMM:   4    -0.890979006350E+03   -0.24036E-03   -0.21055E-03  2320   0.555E-02    0.887E-02
RMM:   5    -0.890979195278E+03   -0.18893E-03   -0.59686E-04  1666   0.428E-02    0.463E-02
RMM:   6    -0.890979216123E+03   -0.20845E-04   -0.20896E-04  1495   0.333E-02
  40 F= -.91190558E+03 E0= -.91190558E+03  d E =-.364854E-02  mag=     0.0000
       N       E                     dE             d eps       ncg     rms          rms(c)
DAV:   1    -0.890979291784E+03   -0.96507E-04   -0.33525E-02  3088   0.176E-01    0.594E-02
RMM:   2    -0.890979329069E+03   -0.37285E-04   -0.76777E-04  1536   0.480E-02
  41 F= -.91190569E+03 E0= -.91190569E+03  d E =-.376461E-02  mag=     0.0000
       N       E                     dE             d eps       ncg     rms          rms(c)
DAV:   1    -0.890979341720E+03   -0.49935E-04   -0.34184E-03  2464   0.630E-02    0.240E-02
RMM:   2    -0.890979363279E+03   -0.21559E-04   -0.13416E-04  1321   0.279E-02
  42 F= -.91190572E+03 E0= -.91190572E+03  d E =-.379785E-02  mag=     0.0000
       N       E                     dE             d eps       ncg     rms          rms(c)
DAV:   1    -0.890979378306E+03   -0.36586E-04   -0.97599E-04  2032   0.351E-02    0.206E-02
RMM:   2    -0.890979386003E+03   -0.76973E-05   -0.50516E-05  1249   0.190E-02
  43 F= -.91190575E+03 E0= -.91190575E+03  d E =-.382112E-02  mag=     0.0000
       N       E                     dE             d eps       ncg     rms          rms(c)
DAV:   1    -0.890979999816E+03   -0.62151E-03   -0.53047E-01  2416   0.715E-01    0.174E-01
RMM:   2    -0.890980863797E+03   -0.86398E-03   -0.13494E-02  2927   0.175E-01    0.116E-01
RMM:   3    -0.890981028356E+03   -0.16456E-03   -0.18212E-03  2074   0.534E-02    0.944E-02
RMM:   4    -0.890981151566E+03   -0.12321E-03   -0.44252E-04  1516   0.486E-02    0.550E-02
RMM:   5    -0.890981270820E+03   -0.11925E-03   -0.41136E-04  1461   0.325E-02    0.257E-02
RMM:   6    -0.890981288806E+03   -0.17985E-04   -0.11815E-04  1348   0.331E-02
  44 F= -.91190757E+03 E0= -.91190757E+03  d E =-.182479E-02  mag=     0.0000
       N       E                     dE             d eps       ncg     rms          rms(c)
DAV:   1    -0.890974849151E+03    0.64217E-02   -0.38951E+00  2368   0.194E+00    0.490E-01
RMM:   2    -0.890981293681E+03   -0.64445E-02   -0.97757E-02  2958   0.477E-01    0.331E-01
RMM:   3    -0.890982917875E+03   -0.16242E-02   -0.18869E-02  3434   0.149E-01    0.265E-01
RMM:   4    -0.890983523400E+03   -0.60553E-03   -0.37258E-03  2863   0.826E-02    0.152E-01
RMM:   5    -0.890984149581E+03   -0.62618E-03   -0.20650E-03  2418   0.516E-02    0.728E-02
RMM:   6    -0.890984134708E+03    0.14873E-04   -0.42216E-04  1610   0.384E-02
  45 F= -.91191021E+03 E0= -.91191021E+03  d E =-.445981E-02  mag=     0.0000
       N       E                     dE             d eps       ncg     rms          rms(c)
DAV:   1    -0.890984890820E+03   -0.74124E-03   -0.59137E-01  2624   0.726E-01    0.212E-01
RMM:   2    -0.890985986453E+03   -0.10956E-02   -0.17038E-02  3009   0.178E-01    0.144E-01
RMM:   3    -0.890986163895E+03   -0.17744E-03   -0.23353E-03  2320   0.559E-02    0.114E-01
RMM:   4    -0.890986341737E+03   -0.17784E-03   -0.78291E-04  1715   0.515E-02    0.530E-02
RMM:   5    -0.890986428350E+03   -0.86613E-04   -0.34498E-04  1510   0.355E-02
  46 F= -.91191246E+03 E0= -.91191246E+03  d E =-.225118E-02  mag=     0.0000
       N       E                     dE             d eps       ncg     rms          rms(c)
DAV:   1    -0.890986425882E+03   -0.84145E-04   -0.63063E-02  3176   0.243E-01    0.786E-02
RMM:   2    -0.890986524125E+03   -0.98243E-04   -0.19288E-03  2065   0.710E-02    0.526E-02
RMM:   3    -0.890986573057E+03   -0.48931E-04   -0.45610E-04  1517   0.317E-02
  47 F= -.91191259E+03 E0= -.91191259E+03  d E =-.238204E-02  mag=     0.0000
       N       E                     dE             d eps       ncg     rms          rms(c)
DAV:   1    -0.890986597973E+03   -0.73847E-04   -0.64318E-03  2776   0.896E-02    0.367E-02
RMM:   2    -0.890986627744E+03   -0.29771E-04   -0.22831E-04  1354   0.317E-02
  48 F= -.91191265E+03 E0= -.91191265E+03  d E =-.244107E-02  mag=     0.0000
       N       E                     dE             d eps       ncg     rms          rms(c)
DAV:   1    -0.890986644903E+03   -0.46930E-04   -0.15984E-03  2016   0.451E-02    0.234E-02
RMM:   2    -0.890986655166E+03   -0.10263E-04   -0.72247E-05  1265   0.218E-02
  49 F= -.91191267E+03 E0= -.91191267E+03  d E =-.246626E-02  mag=     0.0000
       N       E                     dE             d eps       ncg     rms          rms(c)
DAV:   1    -0.890987231008E+03   -0.58611E-03   -0.17016E-01  2384   0.397E-01    0.105E-01
RMM:   2    -0.890987495162E+03   -0.26415E-03   -0.43589E-03  2611   0.101E-01    0.724E-02
RMM:   3    -0.890987569895E+03   -0.74733E-04   -0.62829E-04  1495   0.351E-02
  50 F= -.91191366E+03 E0= -.91191366E+03  d E =-.987708E-03  mag=     0.0000
       N       E                     dE             d eps       ncg     rms          rms(c)
DAV:   1    -0.890987138487E+03    0.35668E-03   -0.84879E-01  2432   0.886E-01    0.238E-01
RMM:   2    -0.890988506937E+03   -0.13685E-02   -0.21561E-02  2928   0.225E-01    0.172E-01
RMM:   3    -0.890988925399E+03   -0.41846E-03   -0.42707E-03  2689   0.714E-02    0.134E-01
RMM:   4    -0.890989155861E+03   -0.23046E-03   -0.73187E-04  1743   0.464E-02    0.806E-02
RMM:   5    -0.890989329149E+03   -0.17329E-03   -0.52611E-04  1636   0.396E-02    0.365E-02
RMM:   6    -0.890989353803E+03   -0.24653E-04   -0.14460E-04  1447   0.323E-02
  51 F= -.91191561E+03 E0= -.91191561E+03  d E =-.293534E-02  mag=     0.0000
       N       E                     dE             d eps       ncg     rms          rms(c)
DAV:   1    -0.890982114511E+03    0.72146E-02   -0.34034E+00  2368   0.177E+00    0.450E-01
RMM:   2    -0.890988421163E+03   -0.63067E-02   -0.88686E-02  3015   0.428E-01    0.297E-01
RMM:   3    -0.890989468426E+03   -0.10473E-02   -0.12407E-02  3342   0.131E-01    0.241E-01
RMM:   4    -0.890989910029E+03   -0.44160E-03   -0.30763E-03  2654   0.707E-02    0.135E-01
RMM:   5    -0.890990437294E+03   -0.52726E-03   -0.16410E-03  2191   0.502E-02    0.651E-02
RMM:   6    -0.890990378181E+03    0.59113E-04   -0.45073E-04  1583   0.411E-02
  52 F= -.91191696E+03 E0= -.91191696E+03  d E =-.428762E-02  mag=     0.0000
       N       E                     dE             d eps       ncg     rms          rms(c)
DAV:   1    -0.890990634123E+03   -0.19683E-03   -0.35790E-01  2680   0.553E-01    0.146E-01
RMM:   2    -0.890991290982E+03   -0.65686E-03   -0.97593E-03  2888   0.129E-01    0.102E-01
RMM:   3    -0.890991369940E+03   -0.78958E-04   -0.98961E-04  1766   0.416E-02
  53 F= -.91191795E+03 E0= -.91191795E+03  d E =-.984974E-03  mag=     0.0000
       N       E                     dE             d eps       ncg     rms          rms(c)
DAV:   1    -0.890991663406E+03   -0.37242E-03   -0.43735E-02  3312   0.203E-01    0.856E-02
RMM:   2    -0.890991702199E+03   -0.38794E-04   -0.11631E-03  1816   0.547E-02    0.674E-02
RMM:   3    -0.890991758500E+03   -0.56301E-04   -0.26265E-04  1372   0.295E-02
  54 F= -.91191833E+03 E0= -.91191833E+03  d E =-.137115E-02  mag=     0.0000
       N       E                     dE             d eps       ncg     rms          rms(c)
DAV:   1    -0.890991531368E+03    0.17083E-03   -0.17530E-01  2416   0.387E-01    0.115E-01
RMM:   2    -0.890991779234E+03   -0.24787E-03   -0.44181E-03  2423   0.976E-02    0.841E-02
RMM:   3    -0.890991879709E+03   -0.10048E-03   -0.80759E-04  1688   0.375E-02    0.664E-02
RMM:   4    -0.890991961184E+03   -0.81474E-04   -0.23638E-04  1415   0.355E-02
  55 F= -.91191853E+03 E0= -.91191853E+03  d E =-.156911E-02  mag=     0.0000
       N       E                     dE             d eps       ncg     rms          rms(c)
DAV:   1    -0.890992749416E+03   -0.86971E-03   -0.40559E-01  2416   0.580E-01    0.154E-01
RMM:   2    -0.890993336251E+03   -0.58683E-03   -0.10015E-02  2831   0.128E-01    0.102E-01
RMM:   3    -0.890993484069E+03   -0.14782E-03   -0.14228E-03  1876   0.433E-02    0.832E-02
RMM:   4    -0.890993561420E+03   -0.77351E-04   -0.34089E-04  1430   0.352E-02
  56 F= -.91192000E+03 E0= -.91192000E+03  d E =-.147185E-02  mag=     0.0000
       N       E                     dE             d eps       ncg     rms          rms(c)
DAV:   1    -0.890989208749E+03    0.42753E-02   -0.36605E+00  2384   0.173E+00    0.461E-01
RMM:   2    -0.890994957600E+03   -0.57489E-02   -0.87902E-02  3052   0.367E-01    0.297E-01
RMM:   3    -0.890996018245E+03   -0.10606E-02   -0.11657E-02  3117   0.115E-01    0.235E-01
RMM:   4    -0.890996545338E+03   -0.52709E-03   -0.24130E-03  2157   0.575E-02    0.136E-01
RMM:   5    -0.890997071103E+03   -0.52577E-03   -0.16431E-03  2055   0.533E-02    0.534E-02
RMM:   6    -0.890997091035E+03   -0.19931E-04   -0.20526E-04  1501   0.331E-02
  57 F= -.91192315E+03 E0= -.91192315E+03  d E =-.461650E-02  mag=     0.0000
       N       E                     dE             d eps       ncg     rms          rms(c)
DAV:   1    -0.890964162038E+03    0.32909E-01   -0.14734E+01  2368   0.347E+00    0.912E-01
RMM:   2    -0.890989863938E+03   -0.25702E-01   -0.36668E-01  3068   0.729E-01    0.589E-01
RMM:   3    -0.890993020919E+03   -0.31570E-02   -0.38368E-02  3260   0.230E-01    0.486E-01
RMM:   4    -0.890995236808E+03   -0.22159E-02   -0.10080E-02  2924   0.113E-01    0.251E-01
RMM:   5    -0.890996836675E+03   -0.15999E-02   -0.49007E-03  2771   0.752E-02    0.102E-01
RMM:   6    -0.890996752596E+03    0.84079E-04   -0.97273E-04  1938   0.434E-02
  58 F= -.91192204E+03 E0= -.91192204E+03  d E =-.350869E-02  mag=     0.0000
       N       E                     dE             d eps       ncg     rms          rms(c)
DAV:   1    -0.890986799339E+03    0.10037E-01   -0.57190E+00  2464   0.216E+00    0.561E-01
RMM:   2    -0.890995893229E+03   -0.90939E-02   -0.13266E-01  3036   0.452E-01    0.368E-01
RMM:   3    -0.890996960992E+03   -0.10678E-02   -0.14462E-02  3076   0.135E-01    0.288E-01
RMM:   4    -0.890997693634E+03   -0.73264E-03   -0.33429E-03  2346   0.714E-02    0.131E-01
RMM:   5    -0.890998153246E+03   -0.45961E-03   -0.12799E-03  1960   0.504E-02    0.597E-02
RMM:   6    -0.890998180457E+03   -0.27211E-04   -0.20392E-04  1458   0.329E-02
  59 F= -.91192395E+03 E0= -.91192395E+03  d E =-.541647E-02  mag=     0.0000
       N       E                     dE             d eps       ncg     rms          rms(c)
DAV:   1    -0.890998190035E+03   -0.36789E-04   -0.60303E-01  2432   0.687E-01    0.178E-01
RMM:   2    -0.890999124992E+03   -0.93496E-03   -0.14159E-02  2955   0.158E-01    0.117E-01
RMM:   3    -0.890999273699E+03   -0.14871E-03   -0.17711E-03  1849   0.497E-02    0.923E-02
RMM:   4    -0.890999391967E+03   -0.11827E-03   -0.45908E-04  1440   0.419E-02    0.466E-02
RMM:   5    -0.890999482229E+03   -0.90262E-04   -0.35500E-04  1384   0.324E-02
  60 F= -.91192522E+03 E0= -.91192522E+03  d E =-.127485E-02  mag=     0.0000
       N       E                     dE             d eps       ncg     rms          rms(c)
DAV:   1    -0.890989219198E+03    0.10173E-01   -0.54441E+00  2368   0.206E+00    0.546E-01
RMM:   2    -0.890999088579E+03   -0.98694E-02   -0.13826E-01  3069   0.473E-01    0.350E-01
RMM:   3    -0.891000739983E+03   -0.16514E-02   -0.16923E-02  3440   0.147E-01    0.287E-01
RMM:   4    -0.891001522708E+03   -0.78273E-03   -0.36345E-03  2773   0.675E-02    0.151E-01
RMM:   5    -0.891002247149E+03   -0.72444E-03   -0.20117E-03  2177   0.509E-02    0.650E-02
RMM:   6    -0.891002193798E+03    0.53351E-04   -0.37135E-04  1535   0.390E-02
  61 F= -.91192785E+03 E0= -.91192785E+03  d E =-.390570E-02  mag=     0.0000
       N       E                     dE             d eps       ncg     rms          rms(c)
DAV:   1    -0.890949576722E+03    0.52670E-01   -0.21774E+01  2368   0.412E+00    0.110E+00
RMM:   2    -0.890991237910E+03   -0.41661E-01   -0.56925E-01  3065   0.934E-01    0.704E-01
RMM:   3    -0.890996773960E+03   -0.55360E-02   -0.63775E-02  3453   0.290E-01    0.591E-01
RMM:   4    -0.890999426179E+03   -0.26522E-02   -0.14914E-02  3296   0.131E-01    0.365E-01
RMM:   5    -0.891002652915E+03   -0.32267E-02   -0.12285E-02  3367   0.102E-01    0.149E-01
RMM:   6    -0.891002525577E+03    0.12734E-03   -0.22431E-03  2586   0.562E-02    0.101E-01
RMM:   7    -0.891002525204E+03    0.37317E-06   -0.27819E-03  2564   0.534E-02    0.622E-02
RMM:   8    -0.891002550446E+03   -0.25242E-04   -0.45356E-04  1621   0.392E-02
  62 F= -.91192805E+03 E0= -.91192805E+03  d E =-.410133E-02  mag=     0.0000
       N       E                     dE             d eps       ncg     rms          rms(c)
DAV:   1    -0.890978208573E+03    0.24317E-01   -0.10987E+01  2368   0.293E+00    0.762E-01
RMM:   2    -0.890997993648E+03   -0.19785E-01   -0.26992E-01  3055   0.655E-01    0.507E-01
RMM:   3    -0.891000760405E+03   -0.27668E-02   -0.31799E-02  3328   0.202E-01    0.404E-01
RMM:   4    -0.891002125797E+03   -0.13654E-02   -0.63913E-03  2702   0.920E-02    0.197E-01
RMM:   5    -0.891003212645E+03   -0.10868E-02   -0.30072E-03  2309   0.623E-02    0.772E-02
RMM:   6    -0.891003150503E+03    0.62141E-04   -0.42942E-04  1552   0.398E-02
  63 F= -.91192876E+03 E0= -.91192876E+03  d E =-.481580E-02  mag=     0.0000
       N       E                     dE             d eps       ncg     rms          rms(c)
DAV:   1    -0.890997584595E+03    0.56280E-02   -0.27383E+00  2384   0.146E+00    0.381E-01
RMM:   2    -0.891002179411E+03   -0.45948E-02   -0.65815E-02  3038   0.327E-01    0.249E-01
RMM:   3    -0.891002780889E+03   -0.60148E-03   -0.75015E-03  3045   0.965E-02    0.198E-01
RMM:   4    -0.891003082282E+03   -0.30139E-03   -0.14250E-03  1956   0.498E-02    0.969E-02
RMM:   5    -0.891003409918E+03   -0.32764E-03   -0.84857E-04  1709   0.444E-02    0.376E-02
RMM:   6    -0.891003422365E+03   -0.12447E-04   -0.14599E-04  1414   0.314E-02
  64 F= -.91192898E+03 E0= -.91192898E+03  d E =-.503037E-02  mag=     0.0000
       N       E                     dE             d eps       ncg     rms          rms(c)
DAV:   1    -0.891003611289E+03   -0.20137E-03   -0.79744E-02  2680   0.248E-01    0.726E-02
RMM:   2    -0.891003738454E+03   -0.12716E-03   -0.21225E-03  1864   0.615E-02    0.491E-02
RMM:   3    -0.891003775650E+03   -0.37196E-04   -0.27635E-04  1417   0.316E-02
  65 F= -.91192933E+03 E0= -.91192933E+03  d E =-.348034E-03  mag=     0.0000
       N       E                     dE             d eps       ncg     rms          rms(c)
DAV:   1    -0.891003951444E+03   -0.21299E-03   -0.14939E-01  2456   0.339E-01    0.102E-01
RMM:   2    -0.891004142822E+03   -0.19138E-03   -0.36114E-03  2225   0.849E-02    0.742E-02
RMM:   3    -0.891004240625E+03   -0.97803E-04   -0.63073E-04  1606   0.363E-02
  66 F= -.91192978E+03 E0= -.91192978E+03  d E =-.805839E-03  mag=     0.0000
       N       E                     dE             d eps       ncg     rms          rms(c)
DAV:   1    -0.891003637681E+03    0.50514E-03   -0.59388E-01  2432   0.673E-01    0.197E-01
RMM:   2    -0.891004545963E+03   -0.90828E-03   -0.14819E-02  2897   0.166E-01    0.140E-01
RMM:   3    -0.891004807316E+03   -0.26135E-03   -0.23462E-03  2138   0.543E-02    0.111E-01
RMM:   4    -0.891005020451E+03   -0.21313E-03   -0.56303E-04  1590   0.437E-02    0.745E-02
RMM:   5    -0.891005157446E+03   -0.13700E-03   -0.38427E-04  1542   0.332E-02    0.220E-02
RMM:   6    -0.891005182329E+03   -0.24884E-04   -0.10817E-04  1383   0.298E-02
  67 F= -.91193071E+03 E0= -.91193071E+03  d E =-.173309E-02  mag=     0.0000
       N       E                     dE             d eps       ncg     rms          rms(c)
DAV:   1    -0.891000502436E+03    0.46550E-02   -0.23830E+00  2368   0.134E+00    0.362E-01
RMM:   2    -0.891004540719E+03   -0.40383E-02   -0.58336E-02  3040   0.299E-01    0.233E-01
RMM:   3    -0.891005231715E+03   -0.69100E-03   -0.73313E-03  3176   0.961E-02    0.187E-01
RMM:   4    -0.891005682010E+03   -0.45029E-03   -0.17537E-03  2067   0.507E-02    0.951E-02
RMM:   5    -0.891006019684E+03   -0.33767E-03   -0.85519E-04  1741   0.450E-02    0.373E-02
RMM:   6    -0.891006024743E+03   -0.50594E-05   -0.18521E-04  1443   0.323E-02
  68 F= -.91193152E+03 E0= -.91193152E+03  d E =-.254668E-02  mag=     0.0000
       N       E                     dE             d eps       ncg     rms          rms(c)
DAV:   1    -0.891006424394E+03   -0.40471E-03   -0.37555E-03  3200   0.759E-02    0.276E-02
RMM:   2    -0.891006437897E+03   -0.13503E-04   -0.16421E-04  1396   0.341E-02
  69 F= -.91193193E+03 E0= -.91193193E+03  d E =-.401898E-03  mag=     0.0000
       N       E                     dE             d eps       ncg     rms          rms(c)
DAV:   1    -0.891007235407E+03   -0.81101E-03   -0.31749E-02  2472   0.207E-01    0.642E-02
RMM:   2    -0.891007337997E+03   -0.10259E-03   -0.13640E-03  2309   0.836E-02    0.563E-02
RMM:   3    -0.891007387589E+03   -0.49593E-04   -0.49991E-04  1726   0.316E-02
  70 F= -.91193284E+03 E0= -.91193284E+03  d E =-.131778E-02  mag=     0.0000
       N       E                     dE             d eps       ncg     rms          rms(c)
DAV:   1    -0.891007685961E+03   -0.34796E-03   -0.12790E-01  2392   0.417E-01    0.122E-01
RMM:   2    -0.891008211419E+03   -0.52546E-03   -0.64216E-03  2739   0.173E-01    0.110E-01
RMM:   3    -0.891008409341E+03   -0.19792E-03   -0.20425E-03  2472   0.552E-02    0.967E-02
RMM:   4    -0.891008419567E+03   -0.10227E-04   -0.32166E-04  1568   0.413E-02
  71 F= -.91193381E+03 E0= -.91193381E+03  d E =-.228230E-02  mag=     0.0000
       N       E                     dE             d eps       ncg     rms          rms(c)
DAV:   1    -0.891008951951E+03   -0.54261E-03   -0.21831E-02  3208   0.173E-01    0.637E-02
RMM:   2    -0.891008983629E+03   -0.31678E-04   -0.78367E-04  1914   0.602E-02
  72 F= -.91193434E+03 E0= -.91193434E+03  d E =-.536981E-03  mag=     0.0000
       N       E                     dE             d eps       ncg     rms          rms(c)
DAV:   1    -0.891009185464E+03   -0.23351E-03   -0.18521E-02  2984   0.159E-01    0.737E-02
RMM:   2    -0.891009234848E+03   -0.49384E-04   -0.78508E-04  1915   0.573E-02
  73 F= -.91193457E+03 E0= -.91193457E+03  d E =-.763517E-03  mag=     0.0000
       N       E                     dE             d eps       ncg     rms          rms(c)
DAV:   1    -0.891009545547E+03   -0.36008E-03   -0.18905E-02  2856   0.180E-01    0.606E-02
RMM:   2    -0.891009592511E+03   -0.46964E-04   -0.57649E-04  1871   0.579E-02
  74 F= -.91193494E+03 E0= -.91193494E+03  d E =-.372676E-03  mag=     0.0000
       N       E                     dE             d eps       ncg     rms          rms(c)
DAV:   1    -0.891009919697E+03   -0.37415E-03   -0.16713E-01  2416   0.529E-01    0.100E-01
RMM:   2    -0.891010358463E+03   -0.43877E-03   -0.51790E-03  2813   0.144E-01    0.112E-01
RMM:   3    -0.891010457991E+03   -0.99528E-04   -0.10930E-03  2177   0.431E-02    0.110E-01
RMM:   4    -0.891010456736E+03    0.12552E-05   -0.20211E-04  1456   0.386E-02
  75 F= -.91193585E+03 E0= -.91193585E+03  d E =-.128213E-02  mag=     0.0000
       N       E                     dE             d eps       ncg     rms          rms(c)
DAV:   1    -0.891009395053E+03    0.10629E-02   -0.65106E-01  2368   0.104E+00    0.184E-01
RMM:   2    -0.891010898273E+03   -0.15032E-02   -0.19181E-02  2979   0.269E-01    0.174E-01
RMM:   3    -0.891011316774E+03   -0.41850E-03   -0.45932E-03  3248   0.758E-02    0.156E-01
RMM:   4    -0.891011335866E+03   -0.19092E-04   -0.76010E-04  2057   0.398E-02
  76 F= -.91193682E+03 E0= -.91193682E+03  d E =-.225219E-02  mag=     0.0000
       N       E                     dE             d eps       ncg     rms          rms(c)
DAV:   1    -0.891011699564E+03   -0.38279E-03   -0.61648E-02  3176   0.307E-01    0.758E-02
RMM:   2    -0.891011769943E+03   -0.70379E-04   -0.16979E-03  2361   0.833E-02    0.654E-02
RMM:   3    -0.891011809691E+03   -0.39748E-04   -0.60948E-04  1945   0.316E-02
  77 F= -.91193727E+03 E0= -.91193727E+03  d E =-.449082E-03  mag=     0.0000
       N       E                     dE             d eps       ncg     rms          rms(c)
DAV:   1    -0.891011920607E+03   -0.15066E-03   -0.17832E-02  3440   0.172E-01    0.622E-02
RMM:   2    -0.891011966614E+03   -0.46008E-04   -0.57385E-04  1877   0.495E-02
  78 F= -.91193742E+03 E0= -.91193742E+03  d E =-.593295E-03  mag=     0.0000
       N       E                     dE             d eps       ncg     rms          rms(c)
DAV:   1    -0.891012012066E+03   -0.91459E-04   -0.23661E-03  2304   0.659E-02    0.498E-02
RMM:   2    -0.891012023920E+03   -0.11854E-04   -0.14032E-04  1319   0.323E-02
  79 F= -.91193747E+03 E0= -.91193747E+03  d E =-.646215E-03  mag=     0.0000
       N       E                     dE             d eps       ncg     rms          rms(c)
DAV:   1    -0.891012056222E+03   -0.44156E-04   -0.82590E-03  2824   0.115E-01    0.469E-02
RMM:   2    -0.891012076259E+03   -0.20037E-04   -0.24852E-04  1361   0.382E-02
  80 F= -.91193751E+03 E0= -.91193751E+03  d E =-.689785E-03  mag=     0.0000
       N       E                     dE             d eps       ncg     rms          rms(c)
DAV:   1    -0.891012239529E+03   -0.18331E-03   -0.79367E-02  2456   0.343E-01    0.677E-02
RMM:   2    -0.891012420687E+03   -0.18116E-03   -0.22160E-03  2327   0.985E-02    0.634E-02
RMM:   3    -0.891012470868E+03   -0.50181E-04   -0.52600E-04  1679   0.331E-02
  81 F= -.91193788E+03 E0= -.91193788E+03  d E =-.365094E-03  mag=     0.0000
       N       E                     dE             d eps       ncg     rms          rms(c)
DAV:   1    -0.891012552293E+03   -0.13161E-03   -0.67864E-02  2672   0.319E-01    0.733E-02
RMM:   2    -0.891012715789E+03   -0.16350E-03   -0.20826E-03  2458   0.880E-02    0.663E-02
RMM:   3    -0.891012749875E+03   -0.34085E-04   -0.35513E-04  1571   0.269E-02
  82 F= -.91193813E+03 E0= -.91193813E+03  d E =-.616732E-03  mag=     0.0000
