       N       E                     dE             d eps       ncg     rms          rms(c)
DAV:   1     0.156209573748E+05    0.15621E+05   -0.33534E+05  2336   0.147E+03
DAV:   2     0.572373962793E+04   -0.98972E+04   -0.86537E+04  2464   0.394E+02
DAV:   3     0.661568018447E+03   -0.50622E+04   -0.47683E+04  2888   0.263E+02
DAV:   4    -0.900360692998E+03   -0.15619E+04   -0.14409E+04  3208   0.138E+02
DAV:   5    -0.106943626334E+04   -0.16908E+03   -0.16645E+03  3888   0.605E+01    0.161E+02
RMM:   6    -0.878567505793E+03    0.19087E+03   -0.61608E+02  3216   0.306E+01    0.105E+02
RMM:   7    -0.143770045859E+04   -0.55913E+03   -0.14151E+03  3690   0.612E+01    0.311E+02
RMM:   8    -0.891245886778E+03    0.54645E+03   -0.35987E+02  2817   0.293E+01    0.882E+01
RMM:   9    -0.120484005092E+04   -0.31359E+03   -0.50861E+02  3130   0.374E+01    0.235E+02
RMM:  10    -0.888009882885E+03    0.31683E+03   -0.17558E+02  3148   0.215E+01    0.925E+01
RMM:  11    -0.896144935468E+03   -0.81351E+01   -0.10041E+02  3364   0.124E+01    0.697E+01
RMM:  12    -0.907593639313E+03   -0.11449E+02   -0.32990E+01  3154   0.107E+01    0.554E+01
RMM:  13    -0.904371023158E+03    0.32226E+01   -0.29181E+01  3456   0.651E+00    0.481E+01
RMM:  14    -0.892850884715E+03    0.11520E+02   -0.22049E+01  3162   0.880E+00    0.370E+01
RMM:  15    -0.890365969236E+03    0.24849E+01   -0.95706E+00  3696   0.338E+00    0.359E+01
RMM:  16    -0.880481116262E+03    0.98849E+01   -0.10501E+01  3228   0.532E+00    0.306E+01
RMM:  17    -0.879921671110E+03    0.55945E+00   -0.36376E+00  3596   0.220E+00    0.286E+01
RMM:  18    -0.880399088327E+03   -0.47742E+00   -0.10128E+00  3603   0.163E+00    0.286E+01
RMM:  19    -0.876877298633E+03    0.35218E+01   -0.28012E+00  3583   0.195E+00    0.281E+01
RMM:  20    -0.874053202305E+03    0.28241E+01   -0.27205E+00  3563   0.221E+00    0.258E+01
RMM:  21    -0.873032482580E+03    0.10207E+01   -0.12413E+00  3795   0.114E+00    0.252E+01
RMM:  22    -0.872445903487E+03    0.58658E+00   -0.57221E-01  3673   0.116E+00    0.248E+01
RMM:  23    -0.867404346389E+03    0.50416E+01   -0.43214E+00  3224   0.268E+00    0.240E+01
RMM:  24    -0.864100978139E+03    0.33034E+01   -0.61013E+00  3173   0.293E+00    0.389E+01
RMM:  25    -0.863513274237E+03    0.58770E+00   -0.11589E+00  3212   0.136E+00    0.238E+01
RMM:  26    -0.863614088862E+03   -0.10081E+00   -0.41274E-01  3676   0.702E-01    0.242E+01
RMM:  27    -0.863618732922E+03   -0.46441E-02   -0.14400E-01  3792   0.366E-01    0.241E+01
RMM:  28    -0.863696878577E+03   -0.78146E-01   -0.55198E-02  3806   0.348E-01    0.251E+01
RMM:  29    -0.863321607169E+03    0.37527E+00   -0.14027E-01  3260   0.508E-01    0.245E+01
RMM:  30    -0.863158285657E+03    0.16332E+00   -0.97260E-02  3313   0.448E-01    0.252E+01
RMM:  31    -0.863245214770E+03   -0.86929E-01   -0.39568E-02  3613   0.241E-01    0.245E+01
RMM:  32    -0.863184622250E+03    0.60593E-01   -0.38075E-02  3271   0.292E-01    0.280E+01
RMM:  33    -0.862998099424E+03    0.18652E+00   -0.27395E-01  3159   0.719E-01    0.313E+01
RMM:  34    -0.862955620780E+03    0.42479E-01   -0.93721E-02  3097   0.417E-01    0.314E+01
RMM:  35    -0.863338696108E+03   -0.38308E+00   -0.12939E-01  3208   0.430E-01    0.364E+01
RMM:  36    -0.863387635398E+03   -0.48939E-01   -0.38194E-02  3106   0.320E-01    0.367E+01
RMM:  37    -0.863330231071E+03    0.57404E-01   -0.12926E-02  3249   0.151E-01    0.351E+01
RMM:  38    -0.863050284404E+03    0.27995E+00   -0.31518E-02  3075   0.258E-01    0.331E+01
RMM:  39    -0.863002541640E+03    0.47743E-01   -0.17894E-02  3081   0.232E-01    0.337E+01
RMM:  40    -0.862999112326E+03    0.34293E-02   -0.82988E-03  2920   0.165E-01    0.336E+01
RMM:  41    -0.862967587183E+03    0.31525E-01   -0.24596E-03  2543   0.883E-02    0.334E+01
RMM:  42    -0.862981106861E+03   -0.13520E-01   -0.15998E-03  2317   0.803E-02    0.334E+01
RMM:  43    -0.862983791763E+03   -0.26849E-02   -0.19993E-03  2347   0.735E-02    0.336E+01
RMM:  44    -0.862996334830E+03   -0.12543E-01   -0.79543E-03  2881   0.154E-01    0.338E+01
RMM:  45    -0.862995008018E+03    0.13268E-02   -0.14445E-03  2186   0.802E-02    0.338E+01
RMM:  46    -0.862956665193E+03    0.38343E-01   -0.45265E-03  2684   0.988E-02    0.334E+01
RMM:  47    -0.862928446395E+03    0.28219E-01   -0.23657E-02  3056   0.231E-01    0.327E+01
RMM:  48    -0.862857065247E+03    0.71381E-01   -0.21913E-02  2798   0.262E-01    0.303E+01
RMM:  49    -0.862935411355E+03   -0.78346E-01   -0.12067E-02  2720   0.191E-01    0.304E+01
RMM:  50    -0.862981022677E+03   -0.45611E-01   -0.46827E-03  2538   0.139E-01    0.300E+01
RMM:  51    -0.876845193344E+03   -0.13864E+02   -0.12208E+02  3519   0.150E+01    0.719E+01
RMM:  52    -0.871833604767E+03    0.50116E+01   -0.58815E+01  3071   0.710E+00    0.601E+01
RMM:  53    -0.870157995063E+03    0.16756E+01   -0.70126E+01  2899   0.817E+00    0.568E+01
RMM:  54    -0.871404706440E+03   -0.12467E+01   -0.23034E+01  3252   0.254E+00    0.538E+01
RMM:  55    -0.871571521445E+03   -0.16682E+00   -0.28954E+00  3274   0.796E-01    0.534E+01
RMM:  56    -0.870174574995E+03    0.13969E+01   -0.60799E+00  3056   0.291E+00    0.582E+01
RMM:  57    -0.867287394813E+03    0.28872E+01   -0.22579E+00  3255   0.106E+00    0.516E+01
RMM:  58    -0.867196022587E+03    0.91372E-01   -0.63214E-01  3196   0.765E-01    0.507E+01
RMM:  59    -0.867171021411E+03    0.25001E-01   -0.63901E-02  3032   0.265E-01    0.509E+01
RMM:  60    -0.867147398265E+03    0.23623E-01   -0.13780E-02  2813   0.150E-01    0.509E+01
RMM:  61    -0.858795904680E+03    0.83515E+01   -0.76859E+01  2985   0.125E+01    0.208E+01
RMM:  62    -0.862945211020E+03   -0.41493E+01   -0.49041E+01  3024   0.557E+00    0.162E+01
RMM:  63    -0.863895308463E+03   -0.95010E+00   -0.87646E+00  2974   0.433E+00    0.164E+01
RMM:  64    -0.862920614452E+03    0.97469E+00   -0.52686E+00  3110   0.207E+00    0.185E+01
RMM:  65    -0.862544562698E+03    0.37605E+00   -0.84139E-01  3014   0.135E+00    0.181E+01
RMM:  66    -0.861266263142E+03    0.12783E+01   -0.37133E+00  3174   0.231E+00    0.168E+01
RMM:  67    -0.861624480998E+03   -0.35822E+00   -0.92493E-01  3097   0.118E+00    0.198E+01
RMM:  68    -0.861951203737E+03   -0.32672E+00   -0.31148E-01  3172   0.666E-01    0.198E+01
RMM:  69    -0.862034968935E+03   -0.83765E-01   -0.14201E-01  3013   0.442E-01    0.197E+01
RMM:  70    -0.862121076396E+03   -0.86107E-01   -0.51265E-01  3199   0.774E-01    0.181E+01
RMM:  71    -0.863057226294E+03   -0.93615E+00   -0.68173E-01  3201   0.919E-01    0.177E+01
RMM:  72    -0.863127587428E+03   -0.70361E-01   -0.20499E-01  3099   0.694E-01    0.177E+01
RMM:  73    -0.862841000442E+03    0.28659E+00   -0.28091E-01  3180   0.688E-01    0.172E+01
RMM:  74    -0.862102945289E+03    0.73806E+00   -0.43220E-01  3185   0.867E-01    0.188E+01
RMM:  75    -0.861898177402E+03    0.20477E+00   -0.16578E-01  3106   0.561E-01    0.218E+01
RMM:  76    -0.861616622358E+03    0.28156E+00   -0.12280E-01  3160   0.522E-01    0.176E+01
RMM:  77    -0.861100685289E+03    0.51594E+00   -0.13398E-01  3161   0.520E-01    0.185E+01
RMM:  78    -0.861284631792E+03   -0.18395E+00   -0.22387E-02  2947   0.232E-01    0.170E+01
RMM:  79    -0.861158355603E+03    0.12628E+00   -0.59729E-02  3061   0.333E-01    0.174E+01
RMM:  80    -0.861124109703E+03    0.34246E-01   -0.36452E-02  3025   0.225E-01    0.174E+01
RMM:  81    -0.860938789804E+03    0.18532E+00   -0.26780E-01  2993   0.675E-01    0.225E+01
RMM:  82    -0.860877808229E+03    0.60982E-01   -0.71516E-02  2984   0.300E-01    0.222E+01
RMM:  83    -0.860879490428E+03   -0.16822E-02   -0.87074E-03  2498   0.144E-01    0.222E+01
RMM:  84    -0.860816824913E+03    0.62666E-01   -0.74030E-03  2402   0.880E-02    0.221E+01
RMM:  85    -0.860842031900E+03   -0.25207E-01   -0.40893E-02  2707   0.275E-01    0.222E+01
RMM:  86    -0.861745008912E+03   -0.90298E+00   -0.95932E-01  2889   0.132E+00    0.176E+01
RMM:  87    -0.861588663040E+03    0.15635E+00   -0.56876E-01  3173   0.664E-01    0.176E+01
RMM:  88    -0.861379952720E+03    0.20871E+00   -0.13731E-01  3022   0.480E-01    0.173E+01
RMM:  89    -0.861026612720E+03    0.35334E+00   -0.19825E-01  3167   0.500E-01    0.171E+01
RMM:  90    -0.860554367919E+03    0.47224E+00   -0.28852E-01  3074   0.689E-01    0.167E+01
RMM:  91    -0.860290275581E+03    0.26409E+00   -0.82302E-01  3088   0.106E+00    0.161E+01
RMM:  92    -0.860210619884E+03    0.79656E-01   -0.86220E-01  3186   0.759E-01    0.158E+01
RMM:  93    -0.860214418835E+03   -0.37990E-02   -0.27352E-01  2993   0.604E-01    0.155E+01
RMM:  94    -0.860267593044E+03   -0.53174E-01   -0.47326E-01  3136   0.555E-01    0.154E+01
RMM:  95    -0.860226477586E+03    0.41115E-01   -0.17896E-01  3000   0.473E-01    0.154E+01
RMM:  96    -0.858208488829E+03    0.20180E+01   -0.31565E+00  3055   0.252E+00    0.170E+01
RMM:  97    -0.858021043491E+03    0.18745E+00   -0.13492E+00  3190   0.122E+00    0.154E+01
RMM:  98    -0.856838702734E+03    0.11823E+01   -0.10248E+00  2997   0.135E+00    0.152E+01
RMM:  99    -0.856564467464E+03    0.27424E+00   -0.84597E-01  3192   0.767E-01    0.161E+01
RMM: 100    -0.855820219079E+03    0.74425E+00   -0.92952E-01  2941   0.134E+00
   1 F= -.87664545E+03 E0= -.87663108E+03  d E =-.876645E+03  mag=    -2.0375
       N       E                     dE             d eps       ncg     rms          rms(c)
DAV:   1    -0.852881808634E+03    0.36827E+01   -0.75400E+01  3392   0.123E+01    0.248E+01
RMM:   2    -0.917818082990E+03   -0.64936E+02   -0.13791E+02  3288   0.131E+01    0.121E+02
RMM:   3    -0.861269350403E+03    0.56549E+02   -0.21696E+01  3030   0.879E+00    0.222E+01
RMM:   4    -0.859176715401E+03    0.20926E+01   -0.11200E+01  3196   0.415E+00    0.144E+01
RMM:   5    -0.859367207246E+03   -0.19049E+00   -0.36403E+00  3092   0.287E+00    0.160E+01
RMM:   6    -0.858656896021E+03    0.71031E+00   -0.35705E+00  3157   0.235E+00    0.127E+01
RMM:   7    -0.858794843129E+03   -0.13795E+00   -0.29493E+00  3179   0.192E+00    0.107E+01
RMM:   8    -0.858893408043E+03   -0.98565E-01   -0.76095E-01  3061   0.126E+00    0.806E+00
RMM:   9    -0.859341823381E+03   -0.44842E+00   -0.54741E-01  3215   0.815E-01    0.968E+00
RMM:  10    -0.859840603177E+03   -0.49878E+00   -0.67217E-01  3133   0.105E+00    0.896E+00
RMM:  11    -0.859820386943E+03    0.20216E-01   -0.72287E-01  2921   0.116E+00    0.606E+00
RMM:  12    -0.859747931463E+03    0.72455E-01   -0.20470E-01  3198   0.520E-01    0.481E+00
RMM:  13    -0.859745376342E+03    0.25551E-02   -0.12936E-01  3091   0.439E-01    0.335E+00
RMM:  14    -0.859756939617E+03   -0.11563E-01   -0.31903E-02  3164   0.205E-01    0.309E+00
RMM:  15    -0.859767104276E+03   -0.10165E-01   -0.14196E-01  2902   0.543E-01    0.260E+00
RMM:  16    -0.859770738658E+03   -0.36344E-02   -0.34358E-02  3163   0.144E-01    0.258E+00
RMM:  17    -0.859775233348E+03   -0.44947E-02   -0.39607E-03  2876   0.798E-02    0.260E+00
RMM:  18    -0.859783995636E+03   -0.87623E-02   -0.95150E-03  2723   0.151E-01    0.231E+00
RMM:  19    -0.859778771726E+03    0.52239E-02   -0.22470E-02  2702   0.214E-01    0.252E+00
RMM:  20    -0.859783017101E+03   -0.42454E-02   -0.52291E-02  3009   0.284E-01    0.178E+00
RMM:  21    -0.859788490088E+03   -0.54730E-02   -0.88945E-03  2752   0.116E-01    0.170E+00
RMM:  22    -0.859794288143E+03   -0.57981E-02   -0.50613E-02  2925   0.311E-01    0.123E+00
RMM:  23    -0.859801447807E+03   -0.71597E-02   -0.38497E-02  2926   0.154E-01    0.127E+00
RMM:  24    -0.859806128145E+03   -0.46803E-02   -0.52380E-03  2697   0.925E-02    0.112E+00
RMM:  25    -0.859812690893E+03   -0.65627E-02   -0.16277E-02  2712   0.192E-01    0.516E-01
RMM:  26    -0.859817015298E+03   -0.43244E-02   -0.25951E-02  2984   0.164E-01    0.435E-01
RMM:  27    -0.859817330605E+03   -0.31531E-03   -0.16090E-03  2269   0.546E-02    0.292E-01
RMM:  28    -0.859818262848E+03   -0.93224E-03   -0.10851E-03  2123   0.439E-02    0.320E-01
RMM:  29    -0.859818884083E+03   -0.62124E-03   -0.61621E-04  1822   0.403E-02    0.218E-01
RMM:  30    -0.859819009620E+03   -0.12554E-03   -0.32548E-04  1622   0.389E-02    0.200E-01
RMM:  31    -0.859818880382E+03    0.12924E-03   -0.20070E-04  1526   0.284E-02    0.186E-01
RMM:  32    -0.859818949461E+03   -0.69078E-04   -0.13639E-04  1487   0.266E-02
   2 F= -.88065141E+03 E0= -.88063688E+03  d E =-.400596E+01  mag=    -0.8198
       N       E                     dE             d eps       ncg     rms          rms(c)
DAV:   1    -0.859827291146E+03   -0.84108E-02   -0.18757E-02  2568   0.165E-01    0.195E-01
RMM:   2    -0.859825417379E+03    0.18738E-02   -0.24373E-02  3048   0.183E-01    0.217E-01
RMM:   3    -0.859825373977E+03    0.43401E-04   -0.18259E-03  2381   0.422E-02    0.168E-01
RMM:   4    -0.859825294681E+03    0.79296E-04   -0.16077E-04  1518   0.286E-02
   3 F= -.88065780E+03 E0= -.88064330E+03  d E =-.401235E+01  mag=    -0.8220
       N       E                     dE             d eps       ncg     rms          rms(c)
DAV:   1    -0.859841624062E+03   -0.16250E-01   -0.75324E-02  2960   0.356E-01    0.423E-01
RMM:   2    -0.859845580559E+03   -0.39565E-02   -0.14357E-02  3048   0.169E-01    0.138E+00
RMM:   3    -0.859841723427E+03    0.38571E-02   -0.38786E-03  2601   0.705E-02    0.179E-01
RMM:   4    -0.859842219800E+03   -0.49637E-03   -0.74135E-04  1756   0.390E-02    0.209E-01
RMM:   5    -0.859842224614E+03   -0.48139E-05   -0.24943E-04  1512   0.263E-02
   4 F= -.88067481E+03 E0= -.88066028E+03  d E =-.402936E+01  mag=    -0.8136
       N       E                     dE             d eps       ncg     rms          rms(c)
DAV:   1    -0.859872907600E+03   -0.30688E-01   -0.29604E-01  2632   0.649E-01    0.679E-01
RMM:   2    -0.859882943407E+03   -0.10036E-01   -0.38664E-02  2928   0.303E-01    0.205E+00
RMM:   3    -0.859873889029E+03    0.90544E-02   -0.10860E-02  3001   0.112E-01    0.301E-01
RMM:   4    -0.859874883891E+03   -0.99486E-03   -0.22903E-03  2386   0.482E-02    0.325E-01
RMM:   5    -0.859874985731E+03   -0.10184E-03   -0.73010E-04  1811   0.353E-02    0.392E-01
RMM:   6    -0.859874990138E+03   -0.44072E-05   -0.42446E-04  1606   0.277E-02
   5 F= -.88070774E+03 E0= -.88069315E+03  d E =-.406229E+01  mag=    -0.8031
       N       E                     dE             d eps       ncg     rms          rms(c)
DAV:   1    -0.859927295570E+03   -0.52310E-01   -0.11778E+00  2480   0.129E+00    0.110E+00
RMM:   2    -0.859950394641E+03   -0.23099E-01   -0.11639E-01  2930   0.555E-01    0.272E+00
RMM:   3    -0.859934145419E+03    0.16249E-01   -0.33248E-02  3233   0.188E-01    0.821E-01
RMM:   4    -0.859935920264E+03   -0.17748E-02   -0.64957E-03  3185   0.680E-02    0.827E-01
RMM:   5    -0.859936715763E+03   -0.79550E-03   -0.54675E-03  2980   0.758E-02    0.876E-01
RMM:   6    -0.859936347931E+03    0.36783E-03   -0.15247E-03  2103   0.386E-02    0.726E-01
RMM:   7    -0.859936448496E+03   -0.10056E-03   -0.17491E-03  2251   0.540E-02    0.880E-01
RMM:   8    -0.859935475500E+03    0.97300E-03   -0.18949E-03  2135   0.556E-02    0.448E-01
RMM:   9    -0.859935591827E+03   -0.11633E-03   -0.24426E-03  2270   0.511E-02    0.245E-01
RMM:  10    -0.859935853377E+03   -0.26155E-03   -0.50879E-04  1663   0.404E-02    0.161E-01
RMM:  11    -0.859935826746E+03    0.26630E-04   -0.24939E-04  1488   0.301E-02
   6 F= -.88076891E+03 E0= -.88075456E+03  d E =-.412346E+01  mag=    -0.7606
       N       E                     dE             d eps       ncg     rms          rms(c)
DAV:   1    -0.860012442509E+03   -0.76589E-01   -0.47562E+00  2416   0.261E+00    0.279E+00
RMM:   2    -0.860153803425E+03   -0.14136E+00   -0.63112E-01  2977   0.117E+00    0.539E+00
RMM:   3    -0.860033442531E+03    0.12036E+00   -0.16065E-01  3172   0.445E-01    0.919E-01
RMM:   4    -0.860040223274E+03   -0.67807E-02   -0.40972E-02  3448   0.143E-01    0.144E+00
RMM:   5    -0.860039347405E+03    0.87587E-03   -0.83769E-03  3218   0.879E-02    0.899E-01
RMM:   6    -0.860040792881E+03   -0.14455E-02   -0.56733E-03  2977   0.624E-02    0.105E+00
RMM:   7    -0.860040951880E+03   -0.15900E-03   -0.77058E-03  3083   0.888E-02    0.142E+00
RMM:   8    -0.860039653912E+03    0.12980E-02   -0.35378E-03  2738   0.679E-02    0.103E+00
RMM:   9    -0.860038710921E+03    0.94299E-03   -0.51577E-03  2813   0.710E-02    0.319E-01
RMM:  10    -0.860039480058E+03   -0.76914E-03   -0.29603E-03  2528   0.640E-02    0.499E-01
RMM:  11    -0.860039431296E+03    0.48762E-04   -0.56565E-04  1645   0.382E-02
   7 F= -.88087315E+03 E0= -.88085903E+03  d E =-.422770E+01  mag=    -0.6984
       N       E                     dE             d eps       ncg     rms          rms(c)
DAV:   1    -0.860084007642E+03   -0.44528E-01   -0.19143E+01  2616   0.533E+00    0.422E+00
RMM:   2    -0.860445308755E+03   -0.36130E+00   -0.17565E+00  2899   0.205E+00    0.112E+01
RMM:   3    -0.860224219159E+03    0.22109E+00   -0.58590E-01  3215   0.832E-01    0.345E+00
RMM:   4    -0.860212819138E+03    0.11400E-01   -0.12821E-01  3450   0.323E-01    0.299E+00
RMM:   5    -0.860178834579E+03    0.33985E-01   -0.76880E-02  3232   0.272E-01    0.217E+00
RMM:   6    -0.860172306894E+03    0.65277E-02   -0.29612E-02  3417   0.124E-01    0.165E+00
RMM:   7    -0.860172292844E+03    0.14050E-04   -0.11360E-02  3344   0.832E-02    0.164E+00
RMM:   8    -0.860182422801E+03   -0.10130E-01   -0.18893E-02  3219   0.121E-01    0.254E+00
RMM:   9    -0.860183413616E+03   -0.99082E-03   -0.58024E-03  2810   0.644E-02    0.260E+00
RMM:  10    -0.860180004069E+03    0.34095E-02   -0.46151E-03  2742   0.701E-02    0.253E+00
RMM:  11    -0.860181143118E+03   -0.11390E-02   -0.17883E-02  2787   0.146E-01    0.377E+00
RMM:  12    -0.860184097012E+03   -0.29539E-02   -0.78052E-03  2739   0.906E-02    0.350E+00
RMM:  13    -0.860190211468E+03   -0.61145E-02   -0.43501E-03  2461   0.728E-02    0.370E+00
RMM:  14    -0.860189000049E+03    0.12114E-02   -0.24761E-02  2836   0.134E-01    0.275E+00
RMM:  15    -0.860187885171E+03    0.11149E-02   -0.86068E-03  2542   0.803E-02    0.298E+00
RMM:  16    -0.860179263108E+03    0.86221E-02   -0.12213E-02  2626   0.916E-02    0.228E+00
RMM:  17    -0.860174914479E+03    0.43486E-02   -0.52488E-03  2478   0.636E-02    0.111E+00
RMM:  18    -0.860177197998E+03   -0.22835E-02   -0.16589E-03  2003   0.526E-02    0.127E+00
RMM:  19    -0.860177021069E+03    0.17693E-03   -0.14478E-03  1980   0.468E-02    0.991E-01
RMM:  20    -0.860177132182E+03   -0.11111E-03   -0.21248E-03  2135   0.531E-02    0.746E-01
RMM:  21    -0.860177387612E+03   -0.25543E-03   -0.24963E-03  2135   0.546E-02    0.656E-01
RMM:  22    -0.860177980111E+03   -0.59250E-03   -0.12925E-03  1895   0.449E-02    0.912E-01
RMM:  23    -0.860177230709E+03    0.74940E-03   -0.58230E-04  1621   0.349E-02    0.407E-01
RMM:  24    -0.860177167133E+03    0.63576E-04   -0.76080E-04  1723   0.330E-02
   8 F= -.88101211E+03 E0= -.88099905E+03  d E =-.436666E+01  mag=    -0.6236
       N       E                     dE             d eps       ncg     rms          rms(c)
DAV:   1    -0.859797202697E+03    0.38003E+00   -0.76762E+01  2744   0.114E+01    0.439E+00
RMM:   2    -0.860150208048E+03   -0.35301E+00   -0.41714E+00  2850   0.353E+00    0.463E+00
RMM:   3    -0.860236936425E+03   -0.86728E-01   -0.11515E+00  3364   0.113E+00    0.304E+00
RMM:   4    -0.860202461917E+03    0.34475E-01   -0.22643E-01  3526   0.422E-01    0.235E+00
RMM:   5    -0.860192035708E+03    0.10426E-01   -0.26351E-01  3408   0.469E-01    0.153E+00
RMM:   6    -0.860281252535E+03   -0.89217E-01   -0.16187E-01  3354   0.388E-01    0.752E+00
RMM:   7    -0.860173421434E+03    0.10783E+00   -0.64824E-02  3192   0.286E-01    0.150E+00
RMM:   8    -0.860196166183E+03   -0.22745E-01   -0.11103E-01  3267   0.303E-01    0.925E-01
RMM:   9    -0.860202987528E+03   -0.68213E-02   -0.30966E-02  3353   0.143E-01    0.884E-01
RMM:  10    -0.860197415264E+03    0.55723E-02   -0.24689E-02  3168   0.140E-01    0.374E-01
RMM:  11    -0.860196080328E+03    0.13349E-02   -0.58483E-03  3056   0.817E-02    0.280E-01
RMM:  12    -0.860195386906E+03    0.69342E-03   -0.39629E-03  2948   0.709E-02    0.248E-01
RMM:  13    -0.860195248817E+03    0.13809E-03   -0.18619E-03  2330   0.507E-02    0.199E-01
RMM:  14    -0.860195669554E+03   -0.42074E-03   -0.81157E-04  1738   0.375E-02    0.177E-01
RMM:  15    -0.860195729266E+03   -0.59712E-04   -0.57205E-04  1660   0.365E-02
   9 F= -.88103302E+03 E0= -.88103272E+03  d E =-.438757E+01  mag=     0.0050
       N       E                     dE             d eps       ncg     rms          rms(c)
DAV:   1    -0.860135161573E+03    0.60508E-01   -0.18413E+01  2568   0.527E+00    0.218E+00
RMM:   2    -0.860235374515E+03   -0.10021E+00   -0.10527E+00  2896   0.183E+00    0.232E+00
RMM:   3    -0.860232777040E+03    0.25975E-02   -0.23879E-01  3344   0.489E-01    0.159E+00
RMM:   4    -0.860234700363E+03   -0.19233E-02   -0.44637E-02  3638   0.174E-01    0.141E+00
RMM:   5    -0.860237625431E+03   -0.29251E-02   -0.54444E-02  3338   0.237E-01    0.945E-01
RMM:   6    -0.860236657818E+03    0.96761E-03   -0.24586E-02  3210   0.172E-01    0.452E-01
RMM:   7    -0.860238170533E+03   -0.15127E-02   -0.20130E-02  3253   0.115E-01    0.463E-01
RMM:   8    -0.860237277471E+03    0.89306E-03   -0.72682E-03  2840   0.970E-02    0.167E-01
RMM:   9    -0.860237700379E+03   -0.42291E-03   -0.64491E-03  2918   0.679E-02    0.155E-01
RMM:  10    -0.860237621345E+03    0.79034E-04   -0.15175E-03  2131   0.483E-02    0.117E-01
RMM:  11    -0.860237684172E+03   -0.62827E-04   -0.94828E-04  1839   0.376E-02
  10 F= -.88107383E+03 E0= -.88107209E+03  d E =-.442837E+01  mag=    -0.0005
       N       E                     dE             d eps       ncg     rms          rms(c)
DAV:   1    -0.860496632410E+03   -0.25901E+00   -0.48025E+01  2608   0.877E+00    0.344E+00
RMM:   2    -0.860660266718E+03   -0.16363E+00   -0.19588E+00  2798   0.261E+00    0.276E+00
RMM:   3    -0.860699820369E+03   -0.39554E-01   -0.46414E-01  3431   0.653E-01    0.220E+00
RMM:   4    -0.860706838441E+03   -0.70181E-02   -0.16483E-01  3424   0.481E-01    0.113E+00
RMM:   5    -0.860706226591E+03    0.61185E-03   -0.51439E-02  3308   0.245E-01    0.496E-01
RMM:   6    -0.860705721216E+03    0.50537E-03   -0.31534E-02  3404   0.168E-01    0.274E-01
RMM:   7    -0.860706533299E+03   -0.81208E-03   -0.16483E-02  3412   0.117E-01    0.231E-01
RMM:   8    -0.860706888287E+03   -0.35499E-03   -0.60988E-03  2964   0.726E-02    0.198E-01
RMM:   9    -0.860707096916E+03   -0.20863E-03   -0.44537E-03  3048   0.657E-02    0.141E-01
RMM:  10    -0.860707350573E+03   -0.25366E-03   -0.32094E-03  2914   0.577E-02    0.827E-02
RMM:  11    -0.860707538166E+03   -0.18759E-03   -0.16840E-03  2228   0.375E-02    0.562E-02
RMM:  12    -0.860707634327E+03   -0.96160E-04   -0.10046E-03  1962   0.382E-02    0.398E-02
RMM:  13    -0.860707694447E+03   -0.60120E-04   -0.64817E-04  1772   0.317E-02
  11 F= -.88154568E+03 E0= -.88154566E+03  d E =-.471854E+00  mag=    -0.0001
       N       E                     dE             d eps       ncg     rms          rms(c)
DAV:   1    -0.860642912648E+03    0.64722E-01   -0.89778E+01  2656   0.121E+01    0.392E+00
RMM:   2    -0.860934239148E+03   -0.29133E+00   -0.36400E+00  2799   0.355E+00    0.314E+00
RMM:   3    -0.861010905723E+03   -0.76667E-01   -0.90577E-01  3448   0.916E-01    0.256E+00
RMM:   4    -0.861020931861E+03   -0.10026E-01   -0.29513E-01  3493   0.560E-01    0.153E+00
RMM:   5    -0.861024815705E+03   -0.38838E-02   -0.92330E-02  3445   0.286E-01    0.681E-01
RMM:   6    -0.861022395417E+03    0.24203E-02   -0.68307E-02  3424   0.257E-01    0.337E-01
RMM:   7    -0.861024185670E+03   -0.17903E-02   -0.34165E-02  3476   0.156E-01    0.295E-01
RMM:   8    -0.861025057451E+03   -0.87178E-03   -0.14041E-02  3337   0.957E-02    0.258E-01
RMM:   9    -0.861025537765E+03   -0.48031E-03   -0.90954E-03  3321   0.910E-02    0.190E-01
RMM:  10    -0.861026256274E+03   -0.71851E-03   -0.74187E-03  3357   0.752E-02    0.932E-02
RMM:  11    -0.861026552917E+03   -0.29664E-03   -0.37196E-03  2504   0.533E-02    0.757E-02
RMM:  12    -0.861026802883E+03   -0.24997E-03   -0.28078E-03  2456   0.475E-02    0.642E-02
RMM:  13    -0.861026940656E+03   -0.13777E-03   -0.15644E-03  2098   0.433E-02    0.388E-02
RMM:  14    -0.861027037197E+03   -0.96541E-04   -0.11945E-03  1969   0.371E-02    0.308E-02
RMM:  15    -0.861027098948E+03   -0.61751E-04   -0.72803E-04  1824   0.341E-02
  12 F= -.88186765E+03 E0= -.88186765E+03  d E =-.793825E+00  mag=     0.0000
       N       E                     dE             d eps       ncg     rms          rms(c)
DAV:   1    -0.861002909584E+03    0.24128E-01   -0.76634E+00  2656   0.349E+00    0.117E+00
RMM:   2    -0.861037121050E+03   -0.34211E-01   -0.42295E-01  2987   0.112E+00    0.847E-01
RMM:   3    -0.861044534334E+03   -0.74133E-02   -0.89274E-02  3580   0.255E-01    0.664E-01
RMM:   4    -0.861045234442E+03   -0.70011E-03   -0.24218E-02  3427   0.159E-01    0.407E-01
RMM:   5    -0.861045842639E+03   -0.60820E-03   -0.98284E-03  3266   0.924E-02    0.181E-01
RMM:   6    -0.861046094285E+03   -0.25165E-03   -0.64486E-03  3324   0.785E-02    0.101E-01
RMM:   7    -0.861046322654E+03   -0.22837E-03   -0.31318E-03  2560   0.455E-02    0.101E-01
RMM:   8    -0.861046461626E+03   -0.13897E-03   -0.16456E-03  2168   0.421E-02    0.987E-02
RMM:   9    -0.861046557464E+03   -0.95837E-04   -0.10926E-03  1922   0.358E-02    0.819E-02
RMM:  10    -0.861046643930E+03   -0.86466E-04   -0.93100E-04  1916   0.364E-02
  13 F= -.88188796E+03 E0= -.88188796E+03  d E =-.814136E+00  mag=     0.0000
       N       E                     dE             d eps       ncg     rms          rms(c)
DAV:   1    -0.861120876434E+03   -0.74319E-01   -0.22664E+01  2512   0.581E+00    0.186E+00
RMM:   2    -0.861207719534E+03   -0.86843E-01   -0.11095E+00  2930   0.188E+00    0.188E+00
RMM:   3    -0.861226617213E+03   -0.18898E-01   -0.22682E-01  3471   0.429E-01    0.163E+00
RMM:   4    -0.861229984352E+03   -0.33671E-02   -0.12625E-01  3370   0.387E-01    0.124E+00
RMM:   5    -0.861234889227E+03   -0.49049E-02   -0.42518E-02  3399   0.200E-01    0.711E-01
RMM:   6    -0.861229034598E+03    0.58546E-02   -0.29014E-02  3211   0.199E-01    0.393E-01
RMM:   7    -0.861228401817E+03    0.63278E-03   -0.27755E-02  3243   0.147E-01    0.174E-01
RMM:   8    -0.861228453104E+03   -0.51287E-04   -0.33564E-03  2793   0.687E-02    0.134E-01
RMM:   9    -0.861228497855E+03   -0.44751E-04   -0.24214E-03  2706   0.479E-02    0.105E-01
RMM:  10    -0.861228610437E+03   -0.11258E-03   -0.24504E-03  2792   0.529E-02    0.641E-02
RMM:  11    -0.861228693517E+03   -0.83079E-04   -0.10304E-03  2105   0.362E-02    0.636E-02
RMM:  12    -0.861228704224E+03   -0.10707E-04   -0.46342E-04  1620   0.337E-02
  14 F= -.88206869E+03 E0= -.88206869E+03  d E =-.180727E+00  mag=     0.0000
       N       E                     dE             d eps       ncg     rms          rms(c)
DAV:   1    -0.861218414299E+03    0.10279E-01   -0.13048E+01  2576   0.441E+00    0.138E+00
RMM:   2    -0.861270583768E+03   -0.52169E-01   -0.65597E-01  2964   0.144E+00    0.137E+00
RMM:   3    -0.861281940065E+03   -0.11356E-01   -0.13599E-01  3536   0.319E-01    0.119E+00
RMM:   4    -0.861283505244E+03   -0.15652E-02   -0.67208E-02  3358   0.282E-01    0.880E-01
RMM:   5    -0.861285788569E+03   -0.22833E-02   -0.22930E-02  3407   0.144E-01    0.479E-01
RMM:   6    -0.861283350887E+03    0.24377E-02   -0.16552E-02  3244   0.145E-01    0.242E-01
RMM:   7    -0.861283315762E+03    0.35125E-04   -0.12736E-02  3231   0.100E-01    0.120E-01
RMM:   8    -0.861283360502E+03   -0.44739E-04   -0.20930E-03  2332   0.507E-02    0.962E-02
RMM:   9    -0.861283401140E+03   -0.40639E-04   -0.14195E-03  2238   0.390E-02    0.775E-02
RMM:  10    -0.861283500551E+03   -0.99411E-04   -0.13273E-03  2254   0.429E-02    0.462E-02
RMM:  11    -0.861283553192E+03   -0.52641E-04   -0.61092E-04  1774   0.332E-02
  15 F= -.88212252E+03 E0= -.88212252E+03  d E =-.234552E+00  mag=     0.0000
       N       E                     dE             d eps       ncg     rms          rms(c)
DAV:   1    -0.861283435108E+03    0.65442E-04   -0.38043E-01  2976   0.752E-01    0.232E-01
RMM:   2    -0.861285124588E+03   -0.16895E-02   -0.20146E-02  2908   0.254E-01    0.231E-01
RMM:   3    -0.861285546860E+03   -0.42227E-03   -0.49633E-03  3124   0.599E-02    0.204E-01
RMM:   4    -0.861285591303E+03   -0.44443E-04   -0.19723E-03  2584   0.506E-02    0.144E-01
RMM:   5    -0.861285691847E+03   -0.10054E-03   -0.10749E-03  2190   0.389E-02    0.664E-02
RMM:   6    -0.861285680944E+03    0.10903E-04   -0.37255E-04  1616   0.309E-02
  16 F= -.88212447E+03 E0= -.88212447E+03  d E =-.236504E+00  mag=    -0.0000
       N       E                     dE             d eps       ncg     rms          rms(c)
DAV:   1    -0.861309633762E+03   -0.23942E-01   -0.77431E+00  2416   0.333E+00    0.707E-01
RMM:   2    -0.861330689320E+03   -0.21056E-01   -0.25487E-01  2857   0.974E-01    0.704E-01
RMM:   3    -0.861335105359E+03   -0.44160E-02   -0.51418E-02  3368   0.224E-01    0.638E-01
RMM:   4    -0.861334775836E+03    0.32952E-03   -0.12384E-02  3384   0.113E-01    0.491E-01
RMM:   5    -0.861335418580E+03   -0.64274E-03   -0.81710E-03  3261   0.903E-02    0.242E-01
RMM:   6    -0.861335188202E+03    0.23038E-03   -0.27322E-03  2977   0.662E-02    0.141E-01
RMM:   7    -0.861334980932E+03    0.20727E-03   -0.24353E-03  2900   0.505E-02    0.964E-02
RMM:   8    -0.861334915508E+03    0.65424E-04   -0.44542E-04  1748   0.338E-02
  17 F= -.88217301E+03 E0= -.88217301E+03  d E =-.485418E-01  mag=     0.0000
       N       E                     dE             d eps       ncg     rms          rms(c)
DAV:   1    -0.861341163940E+03   -0.61830E-02   -0.59991E+00  2416   0.293E+00    0.638E-01
RMM:   2    -0.861358040301E+03   -0.16876E-01   -0.20505E-01  2877   0.864E-01    0.604E-01
RMM:   3    -0.861361726066E+03   -0.36858E-02   -0.42247E-02  3423   0.200E-01    0.538E-01
RMM:   4    -0.861361668680E+03    0.57385E-04   -0.10973E-02  3381   0.106E-01    0.409E-01
RMM:   5    -0.861362224622E+03   -0.55594E-03   -0.59838E-03  3315   0.758E-02    0.202E-01
RMM:   6    -0.861362053294E+03    0.17133E-03   -0.25484E-03  2998   0.604E-02    0.109E-01
RMM:   7    -0.861361975360E+03    0.77934E-04   -0.18299E-03  2792   0.450E-02    0.734E-02
RMM:   8    -0.861361957459E+03    0.17901E-04   -0.43980E-04  1728   0.305E-02
  18 F= -.88219944E+03 E0= -.88219944E+03  d E =-.749690E-01  mag=     0.0000
       N       E                     dE             d eps       ncg     rms          rms(c)
DAV:   1    -0.861290236315E+03    0.71739E-01   -0.23941E+01  2360   0.585E+00    0.122E+00
RMM:   2    -0.861357294307E+03   -0.67058E-01   -0.80559E-01  2871   0.172E+00    0.122E+00
RMM:   3    -0.861371413809E+03   -0.14120E-01   -0.16254E-01  3445   0.397E-01    0.111E+00
RMM:   4    -0.861370345316E+03    0.10685E-02   -0.38563E-02  3486   0.195E-01    0.879E-01
RMM:   5    -0.861372370727E+03   -0.20254E-02   -0.26450E-02  3326   0.159E-01    0.433E-01
RMM:   6    -0.861371462411E+03    0.90832E-03   -0.98593E-03  3234   0.122E-01    0.244E-01
RMM:   7    -0.861371040490E+03    0.42192E-03   -0.68146E-03  3341   0.756E-02    0.173E-01
RMM:   8    -0.861370869929E+03    0.17056E-03   -0.17771E-03  2544   0.438E-02    0.141E-01
RMM:   9    -0.861370731810E+03    0.13812E-03   -0.15065E-03  2614   0.409E-02    0.103E-01
RMM:  10    -0.861370843536E+03   -0.11173E-03   -0.30348E-03  2969   0.603E-02    0.681E-02
RMM:  11    -0.861370763123E+03    0.80413E-04   -0.36468E-04  1692   0.321E-02
  19 F= -.88220700E+03 E0= -.88220700E+03  d E =-.825305E-01  mag=     0.0000
       N       E                     dE             d eps       ncg     rms          rms(c)
DAV:   1    -0.861360715436E+03    0.10128E-01   -0.43816E+00  2680   0.251E+00    0.521E-01
RMM:   2    -0.861372363675E+03   -0.11648E-01   -0.14467E-01  2824   0.736E-01    0.533E-01
RMM:   3    -0.861374730059E+03   -0.23664E-02   -0.27333E-02  3222   0.169E-01    0.485E-01
RMM:   4    -0.861374494502E+03    0.23556E-03   -0.66471E-03  3141   0.885E-02    0.389E-01
RMM:   5    -0.861374984876E+03   -0.49037E-03   -0.47289E-03  2989   0.733E-02    0.207E-01
RMM:   6    -0.861374685492E+03    0.29938E-03   -0.13455E-03  2327   0.542E-02    0.120E-01
RMM:   7    -0.861374527084E+03    0.15841E-03   -0.13772E-03  2365   0.461E-02    0.817E-02
RMM:   8    -0.861374486542E+03    0.40542E-04   -0.23105E-04  1503   0.291E-02
  20 F= -.88221126E+03 E0= -.88221126E+03  d E =-.867886E-01  mag=    -0.0000
       N       E                     dE             d eps       ncg     rms          rms(c)
DAV:   1    -0.861373939475E+03    0.58761E-03   -0.27355E-01  2736   0.627E-01    0.130E-01
RMM:   2    -0.861374560922E+03   -0.62145E-03   -0.79402E-03  2613   0.178E-01    0.140E-01
RMM:   3    -0.861374663731E+03   -0.10281E-03   -0.13230E-03  2236   0.424E-02    0.132E-01
RMM:   4    -0.861374616074E+03    0.47657E-04   -0.18700E-04  1445   0.298E-02
  21 F= -.88221125E+03 E0= -.88221125E+03  d E =-.867835E-01  mag=     0.0000
       N       E                     dE             d eps       ncg     rms          rms(c)
DAV:   1    -0.861370694352E+03    0.39694E-02   -0.10843E+01  2336   0.406E+00    0.695E-01
RMM:   2    -0.861398747216E+03   -0.28053E-01   -0.32492E-01  2869   0.106E+00    0.544E-01
RMM:   3    -0.861403408153E+03   -0.46609E-02   -0.55761E-02  3289   0.238E-01    0.460E-01
RMM:   4    -0.861403273087E+03    0.13507E-03   -0.10723E-02  3363   0.104E-01    0.339E-01
RMM:   5    -0.861403723762E+03   -0.45068E-03   -0.55908E-03  3238   0.750E-02    0.160E-01
RMM:   6    -0.861403687384E+03    0.36378E-04   -0.21850E-03  2927   0.544E-02    0.866E-02
RMM:   7    -0.861403727113E+03   -0.39729E-04   -0.13815E-03  2616   0.421E-02    0.576E-02
RMM:   8    -0.861403724228E+03    0.28852E-05   -0.34016E-04  1666   0.278E-02
  22 F= -.88224104E+03 E0= -.88224104E+03  d E =-.297860E-01  mag=     0.0000
       N       E                     dE             d eps       ncg     rms          rms(c)
DAV:   1    -0.861398084623E+03    0.56425E-02   -0.52494E+00  2352   0.283E+00    0.476E-01
RMM:   2    -0.861411891598E+03   -0.13807E-01   -0.16038E-01  2886   0.742E-01    0.380E-01
RMM:   3    -0.861414389028E+03   -0.24974E-02   -0.29089E-02  3399   0.166E-01    0.326E-01
RMM:   4    -0.861414390773E+03   -0.17450E-05   -0.59149E-03  3331   0.741E-02    0.251E-01
RMM:   5    -0.861414706847E+03   -0.31607E-03   -0.35290E-03  3209   0.600E-02    0.119E-01
RMM:   6    -0.861414717261E+03   -0.10414E-04   -0.13118E-03  2548   0.420E-02    0.652E-02
RMM:   7    -0.861414742953E+03   -0.25693E-04   -0.90735E-04  2259   0.397E-02
  23 F= -.88225253E+03 E0= -.88225253E+03  d E =-.412758E-01  mag=    -0.0000
       N       E                     dE             d eps       ncg     rms          rms(c)
DAV:   1    -0.861348631221E+03    0.66086E-01   -0.20919E+01  2336   0.565E+00    0.965E-01
RMM:   2    -0.861403816214E+03   -0.55185E-01   -0.63594E-01  2881   0.148E+00    0.763E-01
RMM:   3    -0.861413113943E+03   -0.92977E-02   -0.11234E-01  3366   0.333E-01    0.643E-01
RMM:   4    -0.861412872744E+03    0.24120E-03   -0.22248E-02  3435   0.146E-01    0.480E-01
RMM:   5    -0.861413829796E+03   -0.95705E-03   -0.12045E-02  3358   0.106E-01    0.232E-01
RMM:   6    -0.861413780517E+03    0.49279E-04   -0.55239E-03  3285   0.806E-02    0.121E-01
RMM:   7    -0.861413908362E+03   -0.12785E-03   -0.29099E-03  3203   0.526E-02    0.865E-02
RMM:   8    -0.861413933074E+03   -0.24712E-04   -0.10496E-03  2111   0.332E-02    0.704E-02
RMM:   9    -0.861413943340E+03   -0.10266E-04   -0.60295E-04  1907   0.347E-02
  24 F= -.88225267E+03 E0= -.88225267E+03  d E =-.414224E-01  mag=     0.0000
       N       E                     dE             d eps       ncg     rms          rms(c)
DAV:   1    -0.861395867183E+03    0.18066E-01   -0.76304E+00  2432   0.341E+00    0.575E-01
RMM:   2    -0.861415093176E+03   -0.19226E-01   -0.22731E-01  2876   0.880E-01    0.473E-01
RMM:   3    -0.861418021871E+03   -0.29287E-02   -0.35776E-02  3151   0.194E-01    0.401E-01
RMM:   4    -0.861417926120E+03    0.95752E-04   -0.70429E-03  3121   0.912E-02    0.302E-01
RMM:   5    -0.861418301912E+03   -0.37579E-03   -0.33084E-03  2941   0.629E-02    0.148E-01
RMM:   6    -0.861418131153E+03    0.17076E-03   -0.12918E-03  2347   0.499E-02    0.858E-02
RMM:   7    -0.861418150165E+03   -0.19012E-04   -0.80159E-04  2083   0.389E-02
  25 F= -.88225631E+03 E0= -.88225631E+03  d E =-.450555E-01  mag=    -0.0000
       N       E                     dE             d eps       ncg     rms          rms(c)
DAV:   1    -0.861406135411E+03    0.11996E-01   -0.13161E+01  2336   0.434E+00    0.821E-01
RMM:   2    -0.861439062378E+03   -0.32927E-01   -0.38937E-01  2915   0.111E+00    0.624E-01
RMM:   3    -0.861443744764E+03   -0.46824E-02   -0.59524E-02  3264   0.235E-01    0.524E-01
RMM:   4    -0.861443738972E+03    0.57915E-05   -0.14938E-02  3338   0.127E-01    0.348E-01
RMM:   5    -0.861444268190E+03   -0.52922E-03   -0.48294E-03  3242   0.688E-02    0.180E-01
RMM:   6    -0.861444093342E+03    0.17485E-03   -0.33310E-03  3099   0.641E-02    0.934E-02
RMM:   7    -0.861444106273E+03   -0.12931E-04   -0.11671E-03  2468   0.391E-02    0.646E-02
RMM:   8    -0.861444095204E+03    0.11069E-04   -0.36506E-04  1685   0.308E-02
  26 F= -.88228419E+03 E0= -.88228419E+03  d E =-.278856E-01  mag=    -0.0000
       N       E                     dE             d eps       ncg     rms          rms(c)
DAV:   1    -0.861438740206E+03    0.53661E-02   -0.37754E+00  2368   0.232E+00    0.449E-01
RMM:   2    -0.861448370665E+03   -0.96305E-02   -0.11397E-01  2922   0.600E-01    0.334E-01
RMM:   3    -0.861449972591E+03   -0.16019E-02   -0.19133E-02  3389   0.129E-01    0.283E-01
RMM:   4    -0.861450051811E+03   -0.79220E-04   -0.45497E-03  3290   0.692E-02    0.194E-01
RMM:   5    -0.861450285688E+03   -0.23388E-03   -0.18318E-03  2805   0.449E-02    0.952E-02
RMM:   6    -0.861450309602E+03   -0.23914E-04   -0.84381E-04  2188   0.365E-02
  27 F= -.88229145E+03 E0= -.88229145E+03  d E =-.351388E-01  mag=     0.0000
       N       E                     dE             d eps       ncg     rms          rms(c)
DAV:   1    -0.861401174249E+03    0.49111E-01   -0.15049E+01  2336   0.462E+00    0.885E-01
RMM:   2    -0.861440005328E+03   -0.38831E-01   -0.45558E-01  2936   0.120E+00    0.655E-01
RMM:   3    -0.861445887654E+03   -0.58823E-02   -0.73488E-02  3368   0.255E-01    0.551E-01
RMM:   4    -0.861446127078E+03   -0.23942E-03   -0.19195E-02  3422   0.138E-01    0.370E-01
RMM:   5    -0.861446850936E+03   -0.72386E-03   -0.66050E-03  3382   0.762E-02    0.199E-01
RMM:   6    -0.861446777987E+03    0.72949E-04   -0.44811E-03  3298   0.706E-02    0.104E-01
RMM:   7    -0.861446856910E+03   -0.78923E-04   -0.19461E-03  2945   0.456E-02    0.749E-02
RMM:   8    -0.861446873180E+03   -0.16270E-04   -0.72599E-04  1981   0.313E-02
  28 F= -.88229009E+03 E0= -.88229009E+03  d E =-.337840E-01  mag=     0.0000
       N       E                     dE             d eps       ncg     rms          rms(c)
DAV:   1    -0.861433777984E+03    0.13079E-01   -0.63391E+00  2528   0.299E+00    0.562E-01
RMM:   2    -0.861449479093E+03   -0.15701E-01   -0.18758E-01  2945   0.761E-01    0.425E-01
RMM:   3    -0.861451351735E+03   -0.18726E-02   -0.24702E-02  3093   0.154E-01    0.354E-01
RMM:   4    -0.861451427352E+03   -0.75617E-04   -0.67334E-03  2990   0.893E-02    0.229E-01
RMM:   5    -0.861451682747E+03   -0.25539E-03   -0.17940E-03  2475   0.487E-02    0.117E-01
RMM:   6    -0.861451573089E+03    0.10966E-03   -0.10293E-03  2157   0.466E-02    0.626E-02
RMM:   7    -0.861451573985E+03   -0.89568E-06   -0.44818E-04  1760   0.342E-02
  29 F= -.88229344E+03 E0= -.88229344E+03  d E =-.371314E-01  mag=     0.0000
       N       E                     dE             d eps       ncg     rms          rms(c)
DAV:   1    -0.861444634520E+03    0.69386E-02   -0.97662E+00  2336   0.376E+00    0.636E-01
RMM:   2    -0.861468602137E+03   -0.23968E-01   -0.27729E-01  2835   0.954E-01    0.457E-01
RMM:   3    -0.861472272732E+03   -0.36706E-02   -0.45695E-02  3217   0.213E-01    0.384E-01
RMM:   4    -0.861472082886E+03    0.18985E-03   -0.73126E-03  3211   0.895E-02    0.277E-01
RMM:   5    -0.861472497255E+03   -0.41437E-03   -0.42397E-03  3042   0.657E-02    0.134E-01
RMM:   6    -0.861472427683E+03    0.69572E-04   -0.14725E-03  2425   0.454E-02    0.839E-02
RMM:   7    -0.861472485992E+03   -0.58309E-04   -0.14300E-03  2469   0.455E-02    0.522E-02
RMM:   8    -0.861472484072E+03    0.19208E-05   -0.27333E-04  1595   0.273E-02
  30 F= -.88231427E+03 E0= -.88231427E+03  d E =-.208354E-01  mag=     0.0000
       N       E                     dE             d eps       ncg     rms          rms(c)
DAV:   1    -0.861459725391E+03    0.12761E-01   -0.80938E+00  2336   0.343E+00    0.586E-01
RMM:   2    -0.861479888500E+03   -0.20163E-01   -0.23291E-01  2861   0.872E-01    0.426E-01
RMM:   3    -0.861483232975E+03   -0.33445E-02   -0.40604E-02  3317   0.196E-01    0.356E-01
RMM:   4    -0.861483283730E+03   -0.50755E-04   -0.72980E-03  3339   0.832E-02    0.263E-01
RMM:   5    -0.861483742049E+03   -0.45832E-03   -0.42530E-03  3156   0.644E-02    0.126E-01
RMM:   6    -0.861483744346E+03   -0.22974E-05   -0.16578E-03  2533   0.444E-02    0.822E-02
RMM:   7    -0.861483817048E+03   -0.72702E-04   -0.15035E-03  2546   0.458E-02    0.534E-02
RMM:   8    -0.861483826389E+03   -0.93404E-05   -0.41036E-04  1691   0.280E-02
  31 F= -.88232555E+03 E0= -.88232555E+03  d E =-.321101E-01  mag=    -0.0000
       N       E                     dE             d eps       ncg     rms          rms(c)
DAV:   1    -0.861388102737E+03    0.95714E-01   -0.32290E+01  2336   0.685E+00    0.119E+00
RMM:   2    -0.861470537001E+03   -0.82434E-01   -0.94171E-01  2878   0.174E+00    0.854E-01
RMM:   3    -0.861482820425E+03   -0.12283E-01   -0.15681E-01  3340   0.388E-01    0.713E-01
RMM:   4    -0.861482428596E+03    0.39183E-03   -0.29927E-02  3449   0.163E-01    0.526E-01
RMM:   5    -0.861483914935E+03   -0.14863E-02   -0.15983E-02  3351   0.119E-01    0.266E-01
RMM:   6    -0.861483795148E+03    0.11979E-03   -0.72115E-03  3295   0.854E-02    0.162E-01
RMM:   7    -0.861484043123E+03   -0.24797E-03   -0.47724E-03  3270   0.670E-02    0.104E-01
RMM:   8    -0.861484097250E+03   -0.54127E-04   -0.16915E-03  2280   0.388E-02    0.844E-02
RMM:   9    -0.861484167132E+03   -0.69883E-04   -0.91097E-04  2020   0.389E-02
  32 F= -.88232575E+03 E0= -.88232575E+03  d E =-.323134E-01  mag=     0.0000
       N       E                     dE             d eps       ncg     rms          rms(c)
DAV:   1    -0.861452897498E+03    0.31200E-01   -0.12372E+01  2336   0.424E+00    0.733E-01
RMM:   2    -0.861482655633E+03   -0.29758E-01   -0.34442E-01  2845   0.106E+00    0.528E-01
RMM:   3    -0.861487138358E+03   -0.44827E-02   -0.54371E-02  3163   0.237E-01    0.434E-01
RMM:   4    -0.861487162166E+03   -0.23809E-04   -0.98364E-03  3147   0.961E-02    0.292E-01
RMM:   5    -0.861487534704E+03   -0.37254E-03   -0.35286E-03  2895   0.611E-02    0.135E-01
RMM:   6    -0.861487562299E+03   -0.27595E-04   -0.11028E-03  2240   0.424E-02    0.828E-02
RMM:   7    -0.861487603744E+03   -0.41445E-04   -0.13740E-03  2398   0.449E-02    0.529E-02
RMM:   8    -0.861487598209E+03    0.55344E-05   -0.19667E-04  1516   0.270E-02
  33 F= -.88232927E+03 E0= -.88232927E+03  d E =-.358302E-01  mag=     0.0000
       N       E                     dE             d eps       ncg     rms          rms(c)
DAV:   1    -0.861469339860E+03    0.18264E-01   -0.61744E+00  2336   0.299E+00    0.512E-01
RMM:   2    -0.861484211131E+03   -0.14871E-01   -0.17330E-01  2833   0.754E-01    0.373E-01
RMM:   3    -0.861486330980E+03   -0.21198E-02   -0.26964E-02  3153   0.168E-01    0.308E-01
RMM:   4    -0.861486289183E+03    0.41797E-04   -0.50561E-03  2922   0.733E-02    0.213E-01
RMM:   5    -0.861486522548E+03   -0.23337E-03   -0.21937E-03  2581   0.510E-02    0.101E-01
RMM:   6    -0.861486480271E+03    0.42276E-04   -0.69825E-04  1921   0.371E-02
  34 F= -.88232809E+03 E0= -.88232809E+03  d E =-.346520E-01  mag=    -0.0000
       N       E                     dE             d eps       ncg     rms          rms(c)
DAV:   1    -0.861482078521E+03    0.44440E-02   -0.22103E+00  2384   0.179E+00    0.296E-01
RMM:   2    -0.861487134919E+03   -0.50564E-02   -0.60136E-02  2783   0.440E-01    0.217E-01
RMM:   3    -0.861487829354E+03   -0.69444E-03   -0.88857E-03  2956   0.963E-02    0.179E-01
RMM:   4    -0.861487807218E+03    0.22136E-04   -0.12587E-03  2104   0.453E-02    0.121E-01
RMM:   5    -0.861487889423E+03   -0.82205E-04   -0.83443E-04  1984   0.386E-02
  35 F= -.88232954E+03 E0= -.88232954E+03  d E =-.360973E-01  mag=     0.0000
       N       E                     dE             d eps       ncg     rms          rms(c)
DAV:   1    -0.861452853309E+03    0.34954E-01   -0.14523E+01  2336   0.457E+00    0.850E-01
RMM:   2    -0.861495188029E+03   -0.42335E-01   -0.49650E-01  2881   0.132E+00    0.642E-01
RMM:   3    -0.861503610886E+03   -0.84229E-02   -0.96346E-02  3374   0.301E-01    0.534E-01
RMM:   4    -0.861503612014E+03   -0.11286E-05   -0.17292E-02  3417   0.134E-01    0.421E-01
RMM:   5    -0.861504846206E+03   -0.12342E-02   -0.10457E-02  3324   0.973E-02    0.227E-01
RMM:   6    -0.861504635871E+03    0.21034E-03   -0.46806E-03  3166   0.742E-02    0.147E-01
RMM:   7    -0.861504830470E+03   -0.19460E-03   -0.35257E-03  3130   0.582E-02    0.786E-02
RMM:   8    -0.861504838945E+03   -0.84753E-05   -0.85167E-04  1994   0.325E-02
  36 F= -.88234607E+03 E0= -.88234607E+03  d E =-.165326E-01  mag=     0.0000
       N       E                     dE             d eps       ncg     rms          rms(c)
DAV:   1    -0.861503053278E+03    0.17772E-02   -0.11056E+00  2544   0.126E+00    0.246E-01
RMM:   2    -0.861506310337E+03   -0.32571E-02   -0.38843E-02  2853   0.367E-01    0.194E-01
RMM:   3    -0.861507150879E+03   -0.84054E-03   -0.91978E-03  3426   0.888E-02    0.164E-01
RMM:   4    -0.861507236669E+03   -0.85790E-04   -0.18949E-03  2611   0.423E-02    0.133E-01
RMM:   5    -0.861507451669E+03   -0.21500E-03   -0.15387E-03  2549   0.441E-02    0.645E-02
RMM:   6    -0.861507446397E+03    0.52717E-05   -0.50346E-04  1776   0.314E-02
  37 F= -.88234856E+03 E0= -.88234856E+03  d E =-.190244E-01  mag=    -0.0000
       N       E                     dE             d eps       ncg     rms          rms(c)
DAV:   1    -0.861493117214E+03    0.14334E-01   -0.43870E+00  2336   0.251E+00    0.480E-01
RMM:   2    -0.861506041581E+03   -0.12924E-01   -0.15233E-01  2875   0.734E-01    0.356E-01
RMM:   3    -0.861508939230E+03   -0.28976E-02   -0.32174E-02  3483   0.172E-01    0.292E-01
RMM:   4    -0.861509144949E+03   -0.20572E-03   -0.67805E-03  3386   0.778E-02    0.231E-01
RMM:   5    -0.861509580496E+03   -0.43555E-03   -0.36000E-03  3170   0.583E-02    0.124E-01
RMM:   6    -0.861509611892E+03   -0.31396E-04   -0.17923E-03  2603   0.462E-02    0.829E-02
RMM:   7    -0.861509715704E+03   -0.10381E-03   -0.13022E-03  2467   0.432E-02    0.470E-02
RMM:   8    -0.861509731480E+03   -0.15777E-04   -0.40755E-04  1694   0.293E-02
  38 F= -.88235061E+03 E0= -.88235061E+03  d E =-.210750E-01  mag=    -0.0000
       N       E                     dE             d eps       ncg     rms          rms(c)
DAV:   1    -0.861507926527E+03    0.17892E-02   -0.48401E-01  2624   0.835E-01    0.164E-01
RMM:   2    -0.861509223211E+03   -0.12967E-02   -0.16193E-02  2840   0.234E-01    0.120E-01
RMM:   3    -0.861509436949E+03   -0.21374E-03   -0.22285E-03  2428   0.510E-02    0.965E-02
RMM:   4    -0.861509465276E+03   -0.28327E-04   -0.37655E-04  1588   0.359E-02
  39 F= -.88235042E+03 E0= -.88235042E+03  d E =-.208876E-01  mag=    -0.0000
       N       E                     dE             d eps       ncg     rms          rms(c)
DAV:   1    -0.861509169223E+03    0.26773E-03   -0.18635E-01  2448   0.519E-01    0.885E-02
RMM:   2    -0.861509674493E+03   -0.50527E-03   -0.59434E-03  2601   0.149E-01    0.667E-02
RMM:   3    -0.861509739872E+03   -0.65379E-04   -0.80214E-04  1988   0.353E-02
  40 F= -.88235065E+03 E0= -.88235065E+03  d E =-.211139E-01  mag=    -0.0000
       N       E                     dE             d eps       ncg     rms          rms(c)
DAV:   1    -0.861509517082E+03    0.15741E-03   -0.45571E-02  2608   0.263E-01    0.460E-02
RMM:   2    -0.861509649933E+03   -0.13285E-03   -0.14968E-03  2308   0.749E-02    0.196E-02
RMM:   3    -0.861509668116E+03   -0.18183E-04   -0.20944E-04  1442   0.246E-02
  41 F= -.88235060E+03 E0= -.88235060E+03  d E =-.210663E-01  mag=    -0.0000
       N       E                     dE             d eps       ncg     rms          rms(c)
DAV:   1    -0.861509694907E+03   -0.44974E-04   -0.18746E-02  2544   0.166E-01    0.339E-02
RMM:   2    -0.861509732351E+03   -0.37444E-04   -0.52936E-04  1689   0.468E-02
  42 F= -.88235065E+03 E0= -.88235065E+03  d E =-.211148E-01  mag=    -0.0000
       N       E                     dE             d eps       ncg     rms          rms(c)
DAV:   1    -0.861509712926E+03   -0.18019E-04   -0.44994E-03  2720   0.845E-02    0.161E-02
RMM:   2    -0.861509715143E+03   -0.22165E-05   -0.86273E-05  1328   0.221E-02
  43 F= -.88235064E+03 E0= -.88235064E+03  d E =-.211055E-01  mag=    -0.0000
       N       E                     dE             d eps       ncg     rms          rms(c)
DAV:   1    -0.861509734581E+03   -0.21654E-04   -0.15358E-03  2368   0.497E-02    0.101E-02
RMM:   2    -0.861509737428E+03   -0.28479E-05   -0.45943E-05  1213   0.175E-02
  44 F= -.88235066E+03 E0= -.88235066E+03  d E =-.211231E-01  mag=     0.0000
       N       E                     dE             d eps       ncg     rms          rms(c)
DAV:   1    -0.861507015021E+03    0.27196E-02   -0.36402E+00  2336   0.216E+00    0.448E-01
RMM:   2    -0.861516699646E+03   -0.96846E-02   -0.11989E-01  2851   0.650E-01    0.426E-01
RMM:   3    -0.861518927825E+03   -0.22282E-02   -0.25089E-02  3343   0.150E-01    0.379E-01
RMM:   4    -0.861518913609E+03    0.14217E-04   -0.50549E-03  3262   0.738E-02    0.310E-01
RMM:   5    -0.861519464586E+03   -0.55098E-03   -0.37923E-03  3130   0.629E-02    0.176E-01
RMM:   6    -0.861519267654E+03    0.19693E-03   -0.10560E-03  2292   0.441E-02    0.999E-02
RMM:   7    -0.861519200960E+03    0.66693E-04   -0.14491E-03  2501   0.473E-02    0.534E-02
RMM:   8    -0.861519192227E+03    0.87337E-05   -0.19005E-04  1536   0.257E-02
  45 F= -.88235996E+03 E0= -.88235996E+03  d E =-.930343E-02  mag=     0.0000
       N       E                     dE             d eps       ncg     rms          rms(c)
DAV:   1    -0.861519458263E+03   -0.25730E-03   -0.32313E-01  2720   0.646E-01    0.143E-01
RMM:   2    -0.861520410242E+03   -0.95198E-03   -0.12046E-02  2926   0.196E-01    0.127E-01
RMM:   3    -0.861520616650E+03   -0.20641E-03   -0.22827E-03  2678   0.440E-02    0.108E-01
RMM:   4    -0.861520631557E+03   -0.14907E-04   -0.42801E-04  1723   0.340E-02
  46 F= -.88236136E+03 E0= -.88236136E+03  d E =-.106985E-01  mag=    -0.0000
       N       E                     dE             d eps       ncg     rms          rms(c)
DAV:   1    -0.861517464062E+03    0.31526E-02   -0.12701E+00  2368   0.128E+00    0.291E-01
RMM:   2    -0.861520792528E+03   -0.33285E-02   -0.43705E-02  2882   0.388E-01    0.272E-01
RMM:   3    -0.861521709911E+03   -0.91738E-03   -0.10261E-02  3471   0.919E-02    0.235E-01
RMM:   4    -0.861521781914E+03   -0.72003E-04   -0.24078E-03  3030   0.503E-02    0.191E-01
RMM:   5    -0.861522029239E+03   -0.24732E-03   -0.15417E-03  2674   0.450E-02    0.102E-01
RMM:   6    -0.861521969071E+03    0.60167E-04   -0.45471E-04  1762   0.311E-02
  47 F= -.88236261E+03 E0= -.88236261E+03  d E =-.119480E-01  mag=    -0.0000
       N       E                     dE             d eps       ncg     rms          rms(c)
DAV:   1    -0.861517365981E+03    0.46633E-02   -0.36899E+00  2400   0.212E+00    0.495E-01
RMM:   2    -0.861526958518E+03   -0.95925E-02   -0.10987E-01  2800   0.594E-01    0.369E-01
RMM:   3    -0.861528729032E+03   -0.17705E-02   -0.21484E-02  3306   0.145E-01    0.299E-01
RMM:   4    -0.861528778752E+03   -0.49720E-04   -0.39314E-03  3219   0.637E-02    0.195E-01
RMM:   5    -0.861528927155E+03   -0.14840E-03   -0.13844E-03  2434   0.407E-02    0.873E-02
RMM:   6    -0.861528955489E+03   -0.28334E-04   -0.67680E-04  1947   0.371E-02
  48 F= -.88236874E+03 E0= -.88236874E+03  d E =-.613766E-02  mag=     0.0000
       N       E                     dE             d eps       ncg     rms          rms(c)
DAV:   1    -0.861526869533E+03    0.20576E-02   -0.11621E+00  2448   0.119E+00    0.287E-01
RMM:   2    -0.861530132549E+03   -0.32630E-02   -0.36815E-02  2878   0.336E-01    0.213E-01
RMM:   3    -0.861530705000E+03   -0.57245E-03   -0.69056E-03  3294   0.765E-02    0.175E-01
RMM:   4    -0.861530767745E+03   -0.62745E-04   -0.16457E-03  2670   0.455E-02    0.109E-01
RMM:   5    -0.861530855336E+03   -0.87591E-04   -0.60275E-04  1900   0.324E-02
  49 F= -.88237017E+03 E0= -.88237017E+03  d E =-.756265E-02  mag=     0.0000
       N       E                     dE             d eps       ncg     rms          rms(c)
DAV:   1    -0.861530564572E+03    0.20317E-03   -0.12481E+00  2384   0.125E+00    0.302E-01
RMM:   2    -0.861533998632E+03   -0.34341E-02   -0.41595E-02  2831   0.375E-01    0.255E-01
RMM:   3    -0.861534710518E+03   -0.71189E-03   -0.86085E-03  3260   0.904E-02    0.214E-01
RMM:   4    -0.861534701228E+03    0.92904E-05   -0.17508E-03  2708   0.499E-02    0.163E-01
RMM:   5    -0.861534831029E+03   -0.12980E-03   -0.10904E-03  2260   0.431E-02    0.771E-02
RMM:   6    -0.861534818338E+03    0.12691E-04   -0.29192E-04  1604   0.296E-02
  50 F= -.88237387E+03 E0= -.88237387E+03  d E =-.369940E-02  mag=    -0.0000
       N       E                     dE             d eps       ncg     rms          rms(c)
DAV:   1    -0.861532335815E+03    0.24952E-02   -0.11526E+00  2384   0.120E+00    0.294E-01
RMM:   2    -0.861535685827E+03   -0.33500E-02   -0.40018E-02  2908   0.363E-01    0.247E-01
RMM:   3    -0.861536334352E+03   -0.64852E-03   -0.78652E-03  3316   0.833E-02    0.209E-01
RMM:   4    -0.861536361220E+03   -0.26868E-04   -0.19222E-03  2832   0.501E-02    0.161E-01
RMM:   5    -0.861536485103E+03   -0.12388E-03   -0.10550E-03  2294   0.407E-02    0.798E-02
RMM:   6    -0.861536473762E+03    0.11342E-04   -0.32197E-04  1642   0.287E-02
  51 F= -.88237527E+03 E0= -.88237527E+03  d E =-.510323E-02  mag=     0.0000
       N       E                     dE             d eps       ncg     rms          rms(c)
DAV:   1    -0.861536890767E+03   -0.40566E-03   -0.78666E-01  2688   0.914E-01    0.215E-01
RMM:   2    -0.861538805214E+03   -0.19144E-02   -0.21380E-02  2786   0.246E-01    0.181E-01
RMM:   3    -0.861539116139E+03   -0.31092E-03   -0.37106E-03  2739   0.570E-02    0.149E-01
RMM:   4    -0.861539117280E+03   -0.11407E-05   -0.59515E-04  1746   0.372E-02
  52 F= -.88237760E+03 E0= -.88237760E+03  d E =-.232928E-02  mag=    -0.0000
       N       E                     dE             d eps       ncg     rms          rms(c)
DAV:   1    -0.861532329421E+03    0.67867E-02   -0.36976E+00  2336   0.198E+00    0.478E-01
RMM:   2    -0.861540971861E+03   -0.86424E-02   -0.98134E-02  2802   0.531E-01    0.404E-01
RMM:   3    -0.861542451010E+03   -0.14791E-02   -0.18688E-02  3239   0.130E-01    0.330E-01
RMM:   4    -0.861542460163E+03   -0.91528E-05   -0.34504E-03  2934   0.608E-02    0.246E-01
RMM:   5    -0.861542666428E+03   -0.20626E-03   -0.20062E-03  2455   0.515E-02    0.958E-02
RMM:   6    -0.861542649706E+03    0.16722E-04   -0.64959E-04  1838   0.346E-02
  53 F= -.88238045E+03 E0= -.88238045E+03  d E =-.518036E-02  mag=    -0.0000
       N       E                     dE             d eps       ncg     rms          rms(c)
DAV:   1    -0.861542815740E+03   -0.14931E-03   -0.34212E-01  2736   0.681E-01    0.162E-01
RMM:   2    -0.861543826721E+03   -0.10110E-02   -0.12070E-02  2819   0.202E-01    0.143E-01
RMM:   3    -0.861544018992E+03   -0.19227E-03   -0.21873E-03  2520   0.466E-02    0.122E-01
RMM:   4    -0.861544027871E+03   -0.88792E-05   -0.40075E-04  1666   0.360E-02
  54 F= -.88238181E+03 E0= -.88238181E+03  d E =-.136074E-02  mag=    -0.0000
       N       E                     dE             d eps       ncg     rms          rms(c)
DAV:   1    -0.861542852338E+03    0.11667E-02   -0.65350E-01  2400   0.936E-01    0.233E-01
RMM:   2    -0.861544544378E+03   -0.16920E-02   -0.22269E-02  2804   0.279E-01    0.209E-01
RMM:   3    -0.861545002703E+03   -0.45832E-03   -0.51765E-03  3160   0.703E-02    0.179E-01
RMM:   4    -0.861545027478E+03   -0.24775E-04   -0.10385E-03  2290   0.422E-02    0.140E-01
RMM:   5    -0.861545171960E+03   -0.14448E-03   -0.97525E-04  2202   0.420E-02    0.660E-02
RMM:   6    -0.861545102006E+03    0.69954E-04   -0.23048E-04  1512   0.313E-02
  55 F= -.88238286E+03 E0= -.88238286E+03  d E =-.241110E-02  mag=     0.0000
       N       E                     dE             d eps       ncg     rms          rms(c)
DAV:   1    -0.861544875567E+03    0.29639E-03   -0.52551E-01  2496   0.847E-01    0.190E-01
RMM:   2    -0.861546334859E+03   -0.14593E-02   -0.17132E-02  2725   0.242E-01    0.147E-01
RMM:   3    -0.861546622275E+03   -0.28742E-03   -0.33940E-03  2821   0.604E-02    0.121E-01
RMM:   4    -0.861546645296E+03   -0.23021E-04   -0.58327E-04  1803   0.365E-02
  56 F= -.88238399E+03 E0= -.88238399E+03  d E =-.112942E-02  mag=     0.0000
