 vasp.5.3.5 31Mar14 (build May 27 2014 14:39:49) gamma-only                     
  
 executed on           LinuxIFORT date 2020.10.22  01:48:53
 running on   24 total cores
 distrk:  each k-point on   24 cores,    1 groups
 distr:  one band on NCORES_PER_BAND=   6 cores,    4 groups


--------------------------------------------------------------------------------------------------------


 INCAR:
 POTCAR:    PAW_PBE Ce 23Dec2003                  
 POTCAR:    PAW_PBE O 08Apr2002                   
 POTCAR:    PAW_PBE Pt 04Feb2005                  
 POTCAR:    PAW_PBE Ce 23Dec2003                  
   VRHFIN =Ce : [core= Kr 4d10]                                                 
   LEXCH  = PE                                                                  
   EATOM  =  1063.0861 eV,   78.1346 Ry                                         
                                                                                
   TITEL  = PAW_PBE Ce 23Dec2003                                                
   LULTRA =        F    use ultrasoft PP ?                                      
   IUNSCR =        1    unscreen: 0-lin 1-nonlin 2-no                           
   RPACOR =    1.800    partial core radius                                     
   POMASS =  140.115; ZVAL   =   12.000    mass and valenz                      
   RCORE  =    2.700    outmost cutoff radius                                   
   RWIGS  =    2.500; RWIGS  =    1.323    wigner-seitz radius (au A)           
   ENMAX  =  273.042; ENMIN  =  204.781 eV                                      
   RCLOC  =    1.810    cutoff for local pot                                    
   LCOR   =        T    correct aug charges                                     
   LPAW   =        T    paw PP                                                  
   EAUG   =  580.196                                                            
   DEXC   =    0.000                                                            
   RMAX   =    2.749    core radius for proj-oper                               
   RAUG   =    1.300    factor for augmentation sphere                          
   RDEP   =    2.810    radius for radial grids                                 
   RDEPT  =    2.162    core radius for aug-charge                              
                                                                                
   Atomic configuration                                                         
   14 entries                                                                   
     n  l   j            E        occ.                                          
     1  0  0.50    -40258.9816   2.0000                                         
     2  0  0.50     -6445.4884   2.0000                                         
     2  1  1.50     -5771.7470   6.0000                                         
     3  0  0.50     -1387.9739   2.0000                                         
     3  1  1.50     -1173.8158   6.0000                                         
     3  2  2.50      -869.9108  10.0000                                         
     4  0  0.50      -280.8706   2.0000                                         
     4  1  1.50      -210.9815   6.0000                                         
     4  2  2.50      -110.4558  10.0000                                         
     5  0  0.50       -40.5819   2.0000                                         
     6  0  0.50        -3.7444   2.0000                                         
     5  1  1.50       -23.2188   6.0000                                         
     5  2  2.50        -3.0598   1.0000                                         
     4  3  2.50        -5.3970   1.0000                                         
   Description                                                                  
     l       E           TYP  RCUT    TYP  RCUT                                 
     0    -40.5819164     23  1.500                                             
     0     -3.7443793     23  2.300                                             
     1    -23.2188445     23  2.000                                             
     1     40.8174780     23  2.300                                             
     2     -3.0597556     23  2.500                                             
     2     13.6058260     23  2.500                                             
     3     -5.3970469     23  2.700                                             
     3     -5.8505052     23  2.700                                             
  local pseudopotential read in
  partial core-charges read in
  partial kinetic energy density read in
  atomic valenz-charges read in
  non local Contribution for L=           0  read in
    real space projection operators read in
  non local Contribution for L=           0  read in
    real space projection operators read in
  non local Contribution for L=           1  read in
    real space projection operators read in
  non local Contribution for L=           1  read in
    real space projection operators read in
  non local Contribution for L=           2  read in
    real space projection operators read in
  non local Contribution for L=           2  read in
    real space projection operators read in
  non local Contribution for L=           3  read in
    real space projection operators read in
  non local Contribution for L=           3  read in
    real space projection operators read in
    PAW grid and wavefunctions read in
 
   number of l-projection  operators is LMAX  =           8
   number of lm-projection operators is LMMAX =          32
 
 POTCAR:    PAW_PBE O 08Apr2002                   
   VRHFIN =O: s2p4                                                              
   LEXCH  = PE                                                                  
   EATOM  =   432.3788 eV,   31.7789 Ry                                         
                                                                                
   TITEL  = PAW_PBE O 08Apr2002                                                 
   LULTRA =        F    use ultrasoft PP ?                                      
   IUNSCR =        1    unscreen: 0-lin 1-nonlin 2-no                           
   RPACOR =    1.200    partial core radius                                     
   POMASS =   16.000; ZVAL   =    6.000    mass and valenz                      
   RCORE  =    1.520    outmost cutoff radius                                   
   RWIGS  =    1.550; RWIGS  =    0.820    wigner-seitz radius (au A)           
   ENMAX  =  400.000; ENMIN  =  300.000 eV                                      
   ICORE  =        2    local potential                                         
   LCOR   =        T    correct aug charges                                     
   LPAW   =        T    paw PP                                                  
   EAUG   =  605.392                                                            
   DEXC   =    0.000                                                            
   RMAX   =    1.553    core radius for proj-oper                               
   RAUG   =    1.300    factor for augmentation sphere                          
   RDEP   =    1.550    radius for radial grids                                 
   RDEPT  =    1.329    core radius for aug-charge                              
                                                                                
   Atomic configuration                                                         
    4 entries                                                                   
     n  l   j            E        occ.                                          
     1  0  0.50      -514.6923   2.0000                                         
     2  0  0.50       -23.9615   2.0000                                         
     2  1  0.50        -9.0305   4.0000                                         
     3  2  1.50        -9.5241   0.0000                                         
   Description                                                                  
     l       E           TYP  RCUT    TYP  RCUT                                 
     0    -23.9615318     23  1.200                                             
     0     -9.5240782     23  1.200                                             
     1     -9.0304911     23  1.520                                             
     1      8.1634956     23  1.520                                             
     2     -9.5240782      7  1.500                                             
  local pseudopotential read in
  partial core-charges read in
  partial kinetic energy density read in
  kinetic energy density of atom read in
  atomic valenz-charges read in
  non local Contribution for L=           0  read in
    real space projection operators read in
  non local Contribution for L=           0  read in
    real space projection operators read in
  non local Contribution for L=           1  read in
    real space projection operators read in
  non local Contribution for L=           1  read in
    real space projection operators read in
    PAW grid and wavefunctions read in
 
   number of l-projection  operators is LMAX  =           4
   number of lm-projection operators is LMMAX =           8
 
 POTCAR:    PAW_PBE Pt 04Feb2005                  
   VRHFIN =Pt: s1d9                                                             
   LEXCH  = PE                                                                  
   EATOM  =   729.1176 eV,   53.5886 Ry                                         
                                                                                
   TITEL  = PAW_PBE Pt 04Feb2005                                                
   LULTRA =        F    use ultrasoft PP ?                                      
   IUNSCR =        1    unscreen: 0-lin 1-nonlin 2-no                           
   RPACOR =    2.330    partial core radius                                     
   POMASS =  195.080; ZVAL   =   10.000    mass and valenz                      
   RCORE  =    2.600    outmost cutoff radius                                   
   RWIGS  =    2.750; RWIGS  =    1.455    wigner-seitz radius (au A)           
   ENMAX  =  230.283; ENMIN  =  172.712 eV                                      
   ICORE  =        3    local potential                                         
   LCOR   =        T    correct aug charges                                     
   LPAW   =        T    paw PP                                                  
   EAUG   =  358.966                                                            
   DEXC   =    0.000                                                            
   RMAX   =    2.658    core radius for proj-oper                               
   RAUG   =    1.300    factor for augmentation sphere                          
   RDEP   =    2.761    radius for radial grids                                 
   RDEPT  =    2.203    core radius for aug-charge                              
                                                                                
   Atomic configuration                                                         
   16 entries                                                                   
     n  l   j            E        occ.                                          
     1  0  0.50    -78401.1885   2.0000                                         
     2  0  0.50    -13770.7750   2.0000                                         
     2  1  1.50    -11931.0468   6.0000                                         
     3  0  0.50     -3234.7234   2.0000                                         
     3  1  1.50     -2699.2216   6.0000                                         
     3  2  2.50     -2119.5714  10.0000                                         
     4  0  0.50      -695.1528   2.0000                                         
     4  1  1.50      -519.6034   6.0000                                         
     4  2  2.50      -306.6786  10.0000                                         
     4  3  3.50       -70.1041  14.0000                                         
     5  0  0.50      -101.7747   2.0000                                         
     5  1  1.50       -55.9873   6.0000                                         
     5  2  2.50        -6.1423   9.0000                                         
     6  0  0.50        -5.6573   1.0000                                         
     6  1  1.50        -6.8029   0.0000                                         
     5  3  2.50        -1.3606   0.0000                                         
   Description                                                                  
     l       E           TYP  RCUT    TYP  RCUT                                 
     2     -6.1423404     23  2.500                                             
     2     -7.5029230     23  2.500                                             
     0     -5.6573207     23  2.500                                             
     0      0.7416693     23  2.500                                             
     1     -2.7211652     23  2.600                                             
     1     20.4087390     23  2.600                                             
     3     -1.3605826     23  2.500                                             
  local pseudopotential read in
  partial core-charges read in
  partial kinetic energy density read in
  atomic valenz-charges read in
  non local Contribution for L=           2  read in
    real space projection operators read in
  non local Contribution for L=           2  read in
    real space projection operators read in
  non local Contribution for L=           0  read in
    real space projection operators read in
  non local Contribution for L=           0  read in
    real space projection operators read in
  non local Contribution for L=           1  read in
    real space projection operators read in
  non local Contribution for L=           1  read in
    real space projection operators read in
    PAW grid and wavefunctions read in
 
   number of l-projection  operators is LMAX  =           6
   number of lm-projection operators is LMMAX =          18
 
 Optimization of the real space projectors (new method)

 maximal supplied QI-value         = 13.98
 optimisation between [QCUT,QGAM] = [ 10.21, 20.42] = [ 29.18,116.73] Ry 
 Optimized for a Real-space Cutoff    1.65 Angstroem

   l    n(q)    QCUT    max X(q) W(low)/X(q) W(high)/X(q)  e(spline) 
   0     10    10.208     8.553    0.18E-04    0.75E-05    0.12E-06
   0     10    10.208     8.106    0.26E-04    0.16E-04    0.24E-06
   1     10    10.208     4.160    0.93E-05    0.96E-06    0.75E-07
   1     10    10.208     3.597    0.23E-04    0.26E-04    0.15E-06
   2      9    10.208     8.183    0.11E-03    0.28E-03    0.51E-06
   2      9    10.208     6.077    0.74E-04    0.19E-03    0.37E-06
   3      9    10.208   116.013    0.19E-03    0.98E-05    0.18E-06
   3      9    10.208   108.937    0.19E-03    0.10E-04    0.18E-06
 Optimization of the real space projectors (new method)

 maximal supplied QI-value         = 24.76
 optimisation between [QCUT,QGAM] = [ 10.15, 20.30] = [ 28.85,115.39] Ry 
 Optimized for a Real-space Cutoff    1.51 Angstroem

   l    n(q)    QCUT    max X(q) W(low)/X(q) W(high)/X(q)  e(spline) 
   0      9    10.150    20.381    0.17E-03    0.18E-03    0.41E-06
   0      9    10.150    15.268    0.18E-03    0.20E-03    0.43E-06
   1      9    10.150     5.964    0.16E-03    0.20E-03    0.36E-06
   1      9    10.150     5.382    0.13E-03    0.16E-03    0.33E-06
 Optimization of the real space projectors (new method)

 maximal supplied QI-value         = 14.36
 optimisation between [QCUT,QGAM] = [ 10.20, 20.39] = [ 29.12,116.47] Ry 
 Optimized for a Real-space Cutoff    1.55 Angstroem

   l    n(q)    QCUT    max X(q) W(low)/X(q) W(high)/X(q)  e(spline) 
   2      9    10.197    66.195    0.14E-03    0.26E-03    0.16E-06
   2      9    10.197    64.643    0.14E-03    0.26E-03    0.16E-06
   0      9    10.197    95.520    0.52E-04    0.23E-04    0.61E-07
   0      9    10.197    63.403    0.50E-04    0.22E-04    0.58E-07
   1      9    10.197    19.961    0.18E-03    0.80E-04    0.90E-07
   1      9    10.197    13.289    0.15E-03    0.68E-04    0.78E-07
  PAW_PBE Ce 23Dec2003                  :
 energy of atom  1       EATOM=-1063.0861
 kinetic energy error for atom=    0.0451 (will be added to EATOM!!)
  PAW_PBE O 08Apr2002                   :
 energy of atom  2       EATOM= -432.3788
 kinetic energy error for atom=    0.1156 (will be added to EATOM!!)
  PAW_PBE Pt 04Feb2005                  :
 energy of atom  3       EATOM= -729.1176
 kinetic energy error for atom=    0.0056 (will be added to EATOM!!)
 
 
 POSCAR: CeO2-110-l3-p23:                        
  positions in direct lattice
  No initial velocities read in
 exchange correlation table for  LEXCH =        8
   RHO(1)=    0.500       N(1)  =     2000
   RHO(2)=  100.500       N(2)  =     4000

 VTST: version 3.1, (03/28/14)

 CHAIN: initializing optimizer
 
 OPT: Using VASP Conjugate-Gradient optimizer
 CHAIN: Read ICHAIN            0
 
 POSCAR: CeO2-110-l3-p23:                        
  positions in direct lattice
  No initial velocities read in
 


--------------------------------------------------------------------------------------------------------


 ion  position               nearest neighbor table
   1  0.771  0.167  0.000-  36 2.38  40 2.38  39 2.38  44 2.38  52 2.38  54 2.38
   2  0.771  0.500  0.000-  36 2.38  38 2.38  40 2.38  46 2.38  58 2.38  59 2.38
   3  0.271  0.167  0.000-  41 2.38  45 2.38  43 2.38  37 2.38  50 2.38  51 2.38
   4  0.771  0.833  0.000-  38 2.38  46 2.38  44 2.38  39 2.38  49 2.38  53 2.38
   5  0.271  0.500  0.000-  41 2.38  42 2.38  45 2.38  47 2.38  56 2.38  57 2.38
   6  0.271  0.833  0.000-  42 2.38  47 2.38  43 2.38  37 2.38  48 2.38  55 2.38
   7  0.521  0.000  0.079-  60 2.36  49 2.38  50 2.38  54 2.38  48 2.38  44 2.38  43 2.38  66 2.39

   8  0.521  0.667  0.079-  48 2.38  49 2.38  56 2.38  59 2.38  38 2.38  42 2.38  62 2.38  61 2.38

   9  0.021  0.000  0.079-  64 2.36  52 2.38  53 2.38  55 2.38  51 2.38  39 2.38  37 2.38  65 2.39

  10  0.521  0.333  0.079-  70 2.36  68 2.37  50 2.38  54 2.38  56 2.38  59 2.38  36 2.38  45 2.38

  11  0.021  0.333  0.079-  51 2.38  52 2.38  57 2.38  58 2.38  40 2.38  41 2.38  69 2.38  71 2.38

  12  0.021  0.667  0.079-  63 2.37  67 2.37  53 2.38  55 2.38  57 2.38  58 2.38  46 2.38  47 2.38

  13  0.771  0.167  0.157-  72 2.33  69 2.37  60 2.37  54 2.38  70 2.38  52 2.39  79 2.39  65 2.39

  14  0.770  0.833  0.158-  62 2.36  73 2.36  60 2.37  63 2.37  49 2.38  65 2.38  53 2.39  83 2.40

  15  0.270  0.166  0.158-  82 2.36  64 2.36  78 2.36  68 2.37  71 2.38  51 2.38  66 2.39  50 2.39

  16  0.771  0.501  0.157-  75 2.34  77 2.37  59 2.37  58 2.37  63 2.38  69 2.38  70 2.38  62 2.39

  17  0.271  0.500  0.157-  80 2.34  67 2.37  57 2.37  68 2.38  56 2.38  61 2.38  71 2.39  81 2.39

  18  0.271  0.833  0.158-  76 2.32  61 2.36  66 2.38  64 2.38  67 2.38  48 2.39  55 2.39  74 2.42

  19  0.021  0.667  0.234-  83 2.32  67 2.34  81 2.35  63 2.36  75 2.38  86 2.38  76 2.39  91 2.49

  20  0.520  0.667  0.236-  74 2.32  77 2.35  80 2.37  61 2.37  62 2.37  89 2.37  73 2.43  92 2.49

  21  0.020  0.333  0.235-  79 2.34  81 2.36  71 2.36  94 2.36  69 2.37  93 2.39  82 2.41  75 2.42

  22  0.024  0.998  0.233-  65 2.33  76 2.34  85 2.34  82 2.34  64 2.34  95 2.41  83 2.43  79 2.44

  23  0.523  0.002  0.235-  72 2.34  73 2.34  66 2.35  90 2.36  60 2.37  78 2.40  88 2.43  74 2.44

  24  0.517  0.334  0.233-  84 2.31  68 2.32  70 2.34  78 2.35  80 2.36  72 2.41  77 2.42  87 2.51
                           107 3.27
  25  0.765  0.502  0.312- 105 2.30  77 2.33  84 2.33  91 2.34  89 2.35  93 2.36  75 2.37 108 3.09

  26  0.778  0.170  0.315- 102 2.29  79 2.34  88 2.35  93 2.41  85 2.41 103 2.46  72 2.47  84 2.48
                           107 3.14 108 3.29
  27  0.261  0.499  0.314-  81 2.36  94 2.43  87 2.43  86 2.44  92 2.44  80 2.47 106 2.53
  28  0.281  0.833  0.319-  86 2.33  98 2.35  90 2.36  97 2.36  74 2.37  95 2.38  92 2.40  76 2.57

  29  0.268  0.164  0.317-  94 2.31 100 2.32  95 2.35  87 2.39  90 2.41  82 2.43  78 2.44  99 2.47
                           107 3.24
  30  0.776  0.837  0.316-  96 2.32  85 2.33  89 2.35 101 2.36  83 2.36  88 2.41  73 2.43  91 2.51

  31  0.027  1.000  0.385- 102 2.22  95 2.24 100 2.27 101 2.30  85 2.31  97 2.37
  32  0.526  0.997  0.387-  98 2.18  96 2.26  88 2.26  90 2.29  99 2.29 107 3.12
  33  0.031  0.682  0.387-  97 2.21 106 2.21  86 2.23  91 2.23 101 2.24
  34  0.543  0.681  0.391-  96 2.27  89 2.30  92 2.33  98 2.42 105 2.44
  35  0.020  0.322  0.391- 104 2.13 102 2.31  93 2.32  94 2.34 100 2.36 106 2.40
  36  0.646  0.333  0.000-   1 2.38   2 2.38  10 2.38
  37  0.146  0.000  0.000-   3 2.38   6 2.38   9 2.38
  38  0.646  0.667  0.000-   4 2.38   2 2.38   8 2.38
  39  0.896  0.000  0.000-   1 2.38   4 2.38   9 2.38
  40  0.896  0.333  0.000-   1 2.38   2 2.38  11 2.38
  41  0.146  0.333  0.000-   3 2.38   5 2.38  11 2.38
  42  0.396  0.667  0.000-   6 2.38   5 2.38   8 2.38
  43  0.396  0.000  0.000-   3 2.38   6 2.38   7 2.38
  44  0.646  0.000  0.000-   1 2.38   4 2.38   7 2.38
  45  0.396  0.333  0.000-   3 2.38   5 2.38  10 2.38
  46  0.896  0.667  0.000-   4 2.38   2 2.38  12 2.38
  47  0.146  0.667  0.000-   6 2.38   5 2.38  12 2.38
  48  0.396  0.833  0.079-   8 2.38   7 2.38   6 2.38  18 2.39
  49  0.646  0.833  0.079-   8 2.38   7 2.38   4 2.38  14 2.38
  50  0.396  0.167  0.079-  10 2.38   7 2.38   3 2.38  15 2.39
  51  0.146  0.167  0.079-  11 2.38   9 2.38   3 2.38  15 2.38
  52  0.896  0.167  0.079-  11 2.38   9 2.38   1 2.38  13 2.39
  53  0.896  0.833  0.079-  12 2.38   9 2.38   4 2.38  14 2.39
  54  0.646  0.167  0.079-  10 2.38   7 2.38   1 2.38  13 2.38
  55  0.146  0.833  0.079-  12 2.38   9 2.38   6 2.38  18 2.39
  56  0.396  0.500  0.079-   8 2.38  10 2.38   5 2.38  17 2.38
  57  0.146  0.500  0.079-  17 2.37  12 2.38  11 2.38   5 2.38
  58  0.896  0.500  0.079-  16 2.37  12 2.38  11 2.38   2 2.38
  59  0.646  0.500  0.079-  16 2.37  10 2.38   8 2.38   2 2.38
  60  0.647  0.000  0.156-   7 2.36  23 2.37  14 2.37  13 2.37
  61  0.396  0.668  0.157-  18 2.36  20 2.37   8 2.38  17 2.38
  62  0.645  0.669  0.158-  14 2.36  20 2.37   8 2.38  16 2.39
  63  0.896  0.668  0.156-  19 2.36  12 2.37  14 2.37  16 2.38
  64  0.147  0.000  0.156-  22 2.34   9 2.36  15 2.36  18 2.38
  65  0.896  0.999  0.158-  22 2.33  14 2.38  13 2.39   9 2.39
  66  0.397  0.999  0.158-  23 2.35  18 2.38  15 2.39   7 2.39
  67  0.146  0.666  0.157-  19 2.34  17 2.37  12 2.37  18 2.38
  68  0.394  0.333  0.156-  24 2.32  10 2.37  15 2.37  17 2.38
  69  0.895  0.333  0.157-  13 2.37  21 2.37  11 2.38  16 2.38
  70  0.645  0.334  0.157-  24 2.34  10 2.36  16 2.38  13 2.38
  71  0.146  0.333  0.157-  21 2.36  15 2.38  11 2.38  17 2.39
  72  0.646  0.166  0.234-  13 2.33  23 2.34  24 2.41  26 2.47
  73  0.647  0.839  0.236-  23 2.34  14 2.36  30 2.43  20 2.43
  74  0.397  0.830  0.238-  20 2.32  28 2.37  18 2.42  23 2.44
  75  0.893  0.502  0.234-  16 2.34  25 2.37  19 2.38  21 2.42
  76  0.147  0.834  0.234-  18 2.32  22 2.34  19 2.39  28 2.57
  77  0.644  0.503  0.234-  25 2.33  20 2.35  16 2.37  24 2.42
  78  0.394  0.169  0.236-  24 2.35  15 2.36  23 2.40  29 2.44
  79  0.896  0.170  0.236-  26 2.34  21 2.34  13 2.39  22 2.44
  80  0.396  0.501  0.234-  17 2.34  24 2.36  20 2.37  27 2.47
  81  0.141  0.500  0.235-  19 2.35  21 2.36  27 2.36  17 2.39
  82  0.145  0.163  0.235-  22 2.34  15 2.36  21 2.41  29 2.43
  83  0.897  0.828  0.237-  19 2.32  30 2.36  14 2.40  22 2.43
  84  0.642  0.339  0.307- 107 2.04  24 2.31  25 2.33  26 2.48 108 2.69
  85  0.901  0.998  0.311-  31 2.31  30 2.33  22 2.34  26 2.41
  86  0.146  0.678  0.313-  33 2.23  28 2.33  19 2.38  27 2.44
  87  0.394  0.332  0.318- 107 1.99  29 2.39  27 2.43  24 2.51
  88  0.651  0.007  0.315-  32 2.26  26 2.35  30 2.41  23 2.43
  89  0.652  0.673  0.312-  34 2.30  30 2.35  25 2.35  20 2.37
  90  0.401  0.000  0.313-  32 2.29  23 2.36  28 2.36  29 2.41
  91  0.900  0.656  0.319-  33 2.23  25 2.34  19 2.49  30 2.51
  92  0.402  0.661  0.322-  34 2.33  28 2.40  27 2.44  20 2.49
  93  0.898  0.343  0.315-  35 2.32  25 2.36  21 2.39  26 2.41
  94  0.142  0.323  0.314-  29 2.31  35 2.34  21 2.36  27 2.43
  95  0.150  0.996  0.313-  31 2.24  29 2.35  28 2.38  22 2.41
  96  0.654  0.846  0.393-  32 2.26  34 2.27  30 2.32
  97  0.150  0.834  0.395-  33 2.21  28 2.36  31 2.37
  98  0.409  0.847  0.394-  32 2.18  28 2.35  34 2.42
  99  0.407  0.158  0.396- 107 1.98  32 2.29  29 2.47
 100  0.146  0.158  0.394-  31 2.27  29 2.32  35 2.36
 101  0.910  0.836  0.390-  33 2.24  31 2.30  30 2.36
 102  0.908  0.154  0.387-  31 2.22  26 2.29  35 2.31
 103  0.664  0.180  0.401- 107 2.03 108 2.09  26 2.46
 104  0.875  0.391  0.439- 108 1.99  35 2.13
 105  0.687  0.523  0.398- 108 2.02  25 2.30  34 2.44
 106  0.113  0.508  0.392-  33 2.21  35 2.40  27 2.53
 107  0.528  0.259  0.360-  99 1.98  87 1.99 103 2.03  84 2.04 108 2.61  32 3.12  26 3.14  29 3.24
                            24 3.27
 108  0.709  0.353  0.412- 104 1.99 105 2.02 103 2.09 107 2.61  84 2.69  25 3.09  26 3.29
 

IMPORTANT INFORMATION: All symmetrisations will be switched off!
NOSYMM: (Re-)initialisation of all symmetry stuff for point group C_1.

 
 
 KPOINTS: CeO2-111-3x3-9layers         ! Comment  

Automatic generation of k-mesh.
Space group operators:
 irot       det(A)        alpha          n_x          n_y          n_z        tau_x        tau_y        tau_z
    1     1.000000     0.000000     1.000000     0.000000     0.000000     0.000000     0.000000     0.000000
 
 Subroutine IBZKPT returns following result:
 ===========================================
 
 Found      1 irreducible k-points:
 
 Following reciprocal coordinates:
            Coordinates               Weight
  0.000000  0.000000  0.000000      1.000000
 
 Following cartesian coordinates:
            Coordinates               Weight
  0.000000  0.000000  0.000000      1.000000
 


--------------------------------------------------------------------------------------------------------




 Dimension of arrays:
   k-points           NKPTS =      1   k-points in BZ     NKDIM =      1   number of bands    NBANDS=    576
   number of dos      NEDOS =    301   number of ions     NIONS =    108
   non local maximal  LDIM  =      8   non local SUM 2l+1 LMDIM =     32
   total plane-waves  NPLWV = 933120
   max r-space proj   IRMAX =   5592   max aug-charges    IRDMAX= 143303
   dimension x,y,z NGX =    72 NGY =   80 NGZ =  162
   dimension x,y,z NGXF=   144 NGYF=  160 NGZF=  324
   support grid    NGXF=   288 NGYF=  320 NGZF=  648
   ions per type =              35  71   2
 NGX,Y,Z   is equivalent  to a cutoff of  10.90, 11.42, 10.90 a.u.
 NGXF,Y,Z  is equivalent  to a cutoff of  21.80, 22.84, 21.80 a.u.


 I would recommend the setting:
   dimension x,y,z NGX =    72 NGY =   76 NGZ =  161
 SYSTEM =  unknown system                          
 POSCAR =  CeO2-110-l3-p23:                        

 Startparameter for this run:
   NWRITE =      2    write-flag & timer
   PREC   = accura    normal or accurate (medium, high low for compatibility)
   ISTART =      1    job   : 0-new  1-cont  2-samecut
   ICHARG =      0    charge: 1-file 2-atom 10-const
   ISPIN  =      2    spin polarized calculation?
   LNONCOLLINEAR =      F non collinear calculations
   LSORBIT =      F    spin-orbit coupling
   INIWAV =      1    electr: 0-lowe 1-rand  2-diag
   LASPH  =      T    aspherical Exc in radial PAW
   METAGGA=      F    non-selfconsistent MetaGGA calc.

 Electronic Relaxation 1
   ENCUT  =  400.0 eV  29.40 Ry    5.42 a.u.  17.91 18.99 40.29*2*pi/ulx,y,z
   ENINI  =  400.0     initial cutoff
   ENAUG  =  605.4 eV  augmentation charge cutoff
   NELM   =    100;   NELMIN=  2; NELMDL=  0     # of ELM steps 
   EDIFF  = 0.1E-03   stopping-criterion for ELM
   LREAL  =      T    real-space projection
   NLSPLINE    = F    spline interpolate recip. space projectors
   LCOMPAT=      F    compatible to vasp.4.4
   GGA_COMPAT  = T    GGA compatible to vasp.4.4-vasp.4.6
   LMAXPAW     = -100 max onsite density
   LMAXMIX     =    6 max onsite mixed and CHGCAR
   VOSKOWN=      0    Vosko Wilk Nusair interpolation
   ROPT   =   -0.00025  -0.00025  -0.00025
 Ionic relaxation
   EDIFFG = -.5E-01   stopping-criterion for IOM
   NSW    =    100    number of steps for IOM
   NBLOCK =      1;   KBLOCK =    100    inner block; outer block 
   IBRION =      2    ionic relax: 0-MD 1-quasi-New 2-CG
   NFREE  =      1    steps in history (QN), initial steepest desc. (CG)
   ISIF   =      2    stress and relaxation
   IWAVPR =     11    prediction:  0-non 1-charg 2-wave 3-comb
   ISYM   =      0    0-nonsym 1-usesym 2-fastsym
   LCORR  =      T    Harris-Foulkes like correction to forces

   POTIM  = 0.1000    time-step for ionic-motion
   TEIN   =    0.0    initial temperature
   TEBEG  =    0.0;   TEEND  =   0.0 temperature during run
   SMASS  =  -3.00    Nose mass-parameter (am)
   estimated Nose-frequenzy (Omega)   =  0.10E-29 period in steps =****** mass=  -0.276E-26a.u.
   SCALEE = 1.0000    scale energy and forces
   NPACO  =    256;   APACO  = 16.0  distance and # of slots for P.C.
   PSTRESS=    0.0 pullay stress

  Mass of Ions in am
   POMASS = 140.12 16.00195.08
  Ionic Valenz
   ZVAL   =  12.00  6.00 10.00
  Atomic Wigner-Seitz radii
   RWIGS  =  -1.00 -1.00 -1.00
  virtual crystal weights 
   VCA    =   1.00  1.00  1.00
   NELECT =     866.0000    total number of electrons
   NUPDOWN=      -1.0000    fix difference up-down

 DOS related values:
   EMIN   =  10.00;   EMAX   =-10.00  energy-range for DOS
   EFERMI =   0.00
   ISMEAR =     0;   SIGMA  =   0.05  broadening in eV -4-tet -1-fermi 0-gaus

 Electronic relaxation 2 (details)
   IALGO  =     68    algorithm
   LDIAG  =      T    sub-space diagonalisation (order eigenvalues)
   LSUBROT=      F    optimize rotation matrix (better conditioning)
   TURBO    =      0    0=normal 1=particle mesh
   IRESTART =      0    0=no restart 2=restart with 2 vectors
   NREBOOT  =      0    no. of reboots
   NMIN     =      0    reboot dimension
   EREF     =   0.00    reference energy to select bands
   IMIX   =      4    mixing-type and parameters
     AMIX     =   0.20;   BMIX     =  0.00
     AMIX_MAG =   0.80;   BMIX_MAG =  0.00
     AMIN     =   0.10
     WC   =   100.;   INIMIX=   1;  MIXPRE=   1;  MAXMIX= -45

 Intra band minimization:
   WEIMIN = 0.0010     energy-eigenvalue tresh-hold
   EBREAK =  0.43E-07  absolut break condition
   DEPER  =   0.30     relativ break condition  

   TIME   =   0.40     timestep for ELM

  volume/ion in A,a.u.               =      29.25       197.40
  Fermi-wavevector in a.u.,A,eV,Ry     =   1.063470  2.009667 15.387763  1.130969
  Thomas-Fermi vector in A             =   2.198956
 
 Write flags
   LWAVE  =      T    write WAVECAR
   LCHARG =      T    write CHGCAR
   LVTOT  =      F    write LOCPOT, total local potential
   LVHAR  =      F    write LOCPOT, Hartree potential only
   LELF   =      F    write electronic localiz. function (ELF)
   LORBIT =     11    0 simple, 1 ext, 2 COOP (PROOUT)


 Dipole corrections
   LMONO  =      F    monopole corrections only (constant potential shift)
   LDIPOL =      T    correct potential (dipole corrections)
   IDIPOL =      3    1-x, 2-y, 3-z, 4-all directions 
   EPSILON=  1.0000000 bulk dielectric constant

 LDA+U is selected, type is set to LDAUTYPE =  2
   angular momentum for each species LDAUL =     3   -1   -1
   U (eV)           for each species LDAUU =   4.5  0.0  0.0
   J (eV)           for each species LDAUJ =   0.0  0.0  0.0
 Exchange correlation treatment:
   GGA     =    --    GGA type
   LEXCH   =     8    internal setting for exchange type
   VOSKOWN=      0    Vosko Wilk Nusair interpolation
   LHFCALC =     F    Hartree Fock is set to
   LHFONE  =     F    Hartree Fock one center treatment
   AEXX    =    0.0000 exact exchange contribution

 Linear response parameters
   LEPSILON=     F    determine dielectric tensor
   LRPA    =     F    only Hartree local field effects (RPA)
   LNABLA  =     F    use nabla operator in PAW spheres
   LVEL    =     F    velocity operator in full k-point grid
   LINTERFAST=   F  fast interpolation
   KINTER  =     0    interpolate to denser k-point grid
   CSHIFT  =0.1000    complex shift for real part using Kramers Kronig
   OMEGAMAX=  -1.0    maximum frequency
   DEG_THRESHOLD= 0.2000000E-02 threshold for treating states as degnerate
   RTIME   =    0.100 relaxation time in fs

 Orbital magnetization related:
   ORBITALMAG=     F  switch on orbital magnetization
   LCHIMAG   =     F  perturbation theory with respect to B field
   DQ        =  0.001000  dq finite difference perturbation B field



--------------------------------------------------------------------------------------------------------


 conjugate gradient relaxation of ions
   using selective dynamics as specified on POSCAR
 charge density and potential will be updated during run
 spin polarized calculation
 RMM-DIIS sequential band-by-band and
  variant of blocked Davidson during initial phase
 perform sub-space diagonalisation
    before iterative eigenvector-optimisation
 modified Broyden-mixing scheme, WC =      100.0
 initial mixing is a Kerker type mixing with AMIX =  0.2000 and BMIX =      0.0010
 Hartree-type preconditioning will be used
 using additional bands          143
 real space projection scheme for non local part
 use partial core corrections
 calculate Harris-corrections to forces 
   (improved forces if not selfconsistent)
 use gradient corrections 
 use of overlap-Matrix (Vanderbilt PP)
 Gauss-broadening in eV      SIGMA  =   0.05


--------------------------------------------------------------------------------------------------------


  energy-cutoff  :      400.00
  volume of cell :     3159.12
      direct lattice vectors                 reciprocal lattice vectors
    10.980000000  0.000000000  0.000000000     0.091074681  0.000000000  0.000000000
     0.000000000 11.646048686  0.000000000     0.000000000  0.085866033  0.000000000
     0.000000000  0.000000000 24.705040572     0.000000000  0.000000000  0.040477570

  length of vectors
    10.980000000 11.646048686 24.705040572     0.091074681  0.085866033  0.040477570


 
 old parameters found on file WAVECAR:
  energy-cutoff  :      400.00
  volume of cell :     3159.12
      direct lattice vectors                 reciprocal lattice vectors
    10.980000000  0.000000000  0.000000000     0.091074681  0.000000000  0.000000000
     0.000000000 11.646048686  0.000000000     0.000000000  0.085866033  0.000000000
     0.000000000  0.000000000 24.705040572     0.000000000  0.000000000  0.040477570

  length of vectors

 
 k-points in units of 2pi/SCALE and weight: CeO2-111-3x3-9layers         ! Comment  
   0.00000000  0.00000000  0.00000000       1.000
 
 k-points in reciprocal lattice and weights: CeO2-111-3x3-9layers         ! Comment  
   0.00000000  0.00000000  0.00000000       1.000
 
 position of ions in fractional coordinates (direct lattice) 
   0.77120274  0.16666677  0.00000000
   0.77120274  0.50000010  0.00000000
   0.27120274  0.16666677  0.00000000
   0.77120274  0.83333343  0.00000000
   0.27120274  0.50000010  0.00000000
   0.27120274  0.83333343  0.00000000
   0.52120274  0.00000010  0.07856729
   0.52120274  0.66666677  0.07856729
   0.02120274  0.00000010  0.07856729
   0.52120274  0.33333343  0.07856729
   0.02120274  0.33333343  0.07856729
   0.02120274  0.66666677  0.07856729
   0.77070822  0.16730849  0.15743892
   0.77009218  0.83337043  0.15751677
   0.27043044  0.16610574  0.15750584
   0.77081342  0.50104812  0.15679141
   0.27077537  0.50045960  0.15711581
   0.27135978  0.83292000  0.15777568
   0.02139630  0.66718419  0.23406434
   0.51955945  0.66738587  0.23565226
   0.02049409  0.33296045  0.23498767
   0.02391804  0.99824259  0.23345440
   0.52308828  0.00238582  0.23462070
   0.51696755  0.33368558  0.23253272
   0.76529747  0.50197820  0.31158591
   0.77776612  0.16952562  0.31520385
   0.26106631  0.49918552  0.31402999
   0.28082692  0.83266806  0.31878570
   0.26771244  0.16442847  0.31690216
   0.77583997  0.83712695  0.31579351
   0.02705640  0.99973701  0.38527341
   0.52554594  0.99745191  0.38735323
   0.03137502  0.68151034  0.38717749
   0.54335520  0.68146195  0.39131965
   0.01961518  0.32161272  0.39132893
   0.64620274  0.33333343  0.00000000
   0.14620274  0.00000010  0.00000000
   0.64620274  0.66666677  0.00000000
   0.89620274  0.00000010  0.00000000
   0.89620274  0.33333343  0.00000000
   0.14620274  0.33333343  0.00000000
   0.39620274  0.66666677  0.00000000
   0.39620274  0.00000010  0.00000000
   0.64620274  0.00000010  0.00000000
   0.39620274  0.33333343  0.00000000
   0.89620274  0.66666677  0.00000000
   0.14620274  0.66666677  0.00000000
   0.39620274  0.83333343  0.07856729
   0.64620274  0.83333343  0.07856729
   0.39620274  0.16666677  0.07856729
   0.14620274  0.16666677  0.07856729
   0.89620274  0.16666677  0.07856729
   0.89620274  0.83333343  0.07856729
   0.64620274  0.16666677  0.07856729
   0.14620274  0.83333343  0.07856729
   0.39620274  0.50000010  0.07856729
   0.14620274  0.50000010  0.07856729
   0.89620274  0.50000010  0.07856729
   0.64620274  0.50000010  0.07856729
   0.64683768  0.00030942  0.15626345
   0.39558504  0.66795183  0.15707941
   0.64532428  0.66860270  0.15750268
   0.89580724  0.66772101  0.15647682
   0.14696092  0.00006890  0.15595534
   0.89631274  0.99930057  0.15801906
   0.39677890  0.99912188  0.15809113
   0.14600893  0.66615780  0.15699705
   0.39426655  0.33276564  0.15602961
   0.89515652  0.33340592  0.15690683
   0.64514536  0.33423771  0.15675375
   0.14581001  0.33288355  0.15737825
   0.64625159  0.16608000  0.23395232
   0.64679116  0.83852378  0.23576884
   0.39714926  0.82967352  0.23797758
   0.89346909  0.50227428  0.23420581
   0.14668918  0.83447667  0.23352199
   0.64432297  0.50317260  0.23429799
   0.39434794  0.16855790  0.23575391
   0.89621170  0.16965636  0.23641769
   0.39589900  0.50065609  0.23379142
   0.14142617  0.50004283  0.23487227
   0.14548405  0.16327942  0.23503346
   0.89662669  0.82794158  0.23676149
   0.64219601  0.33926430  0.30741518
   0.90076422  0.99831911  0.31057077
   0.14617726  0.67809669  0.31286375
   0.39357727  0.33198682  0.31813140
   0.65078690  0.00689386  0.31472301
   0.65197936  0.67308140  0.31159735
   0.40082148  0.00044795  0.31318205
   0.90019628  0.65628323  0.31918775
   0.40155082  0.66113249  0.32175527
   0.89805743  0.34257774  0.31497541
   0.14187474  0.32325896  0.31392097
   0.15045790  0.99589284  0.31298694
   0.65443479  0.84627969  0.39251372
   0.15015393  0.83371706  0.39473929
   0.40913369  0.84668437  0.39443303
   0.40686470  0.15809464  0.39551729
   0.14625749  0.15755649  0.39370434
   0.91003780  0.83646833  0.39031348
   0.90788224  0.15408913  0.38722403
   0.66408427  0.17989953  0.40110205
   0.87544130  0.39076941  0.43871752
   0.68724010  0.52256648  0.39752759
   0.11264637  0.50801893  0.39244961
   0.52753875  0.25917258  0.36004179
   0.70905282  0.35290955  0.41180564
 
 position of ions in cartesian coordinates  (Angst):
   8.46780604  1.94100927  0.00000000
   8.46780604  5.82302550  0.00000000
   2.97780604  1.94100927  0.00000000
   8.46780604  9.70504173  0.00000000
   2.97780604  5.82302550  0.00000000
   2.97780604  9.70504173  0.00000000
   5.72280604  0.00000116  1.94100811
   5.72280604  7.76403361  1.94100811
   0.23280604  0.00000116  1.94100811
   5.72280604  3.88201739  1.94100811
   0.23280604  3.88201739  1.94100811
   0.23280604  7.76403361  1.94100811
   8.46237628  1.94848276  3.88953495
   8.45561211  9.70547261  3.89145818
   2.96932621  1.93447550  3.89118822
   8.46353132  5.83523078  3.87353826
   2.97311352  5.82837684  3.88155254
   2.97953034  9.70022690  3.89785461
   0.23493141  7.77005954  5.78256903
   5.70476278  7.77240829  5.82179860
   0.22502514  3.87767365  5.80538004
   0.26262009 11.62558180  5.76750048
   5.74350931  0.02778535  5.79631386
   5.67630366  3.88611856  5.74473023
   8.40296618  5.84606256  7.69774252
   8.53987198  1.97430362  7.78712395
   2.86650803  5.81353883  7.75812364
   3.08347960  9.69729280  7.87561367
   2.93948262  1.91494193  7.82908067
   8.51872283  9.74922123  7.80169147
   0.29707925 11.64298589  9.51819518
   5.77049437 11.61637355  9.56957729
   0.34449772  7.93690258  9.56523550
   5.96604013  7.93633905  9.66756782
   0.21537471  3.74551741  9.66779699
   7.09530604  3.88201739  0.00000000
   1.60530604  0.00000116  0.00000000
   7.09530604  7.76403361  0.00000000
   9.84030604  0.00000116  0.00000000
   9.84030604  3.88201739  0.00000000
   1.60530604  3.88201739  0.00000000
   4.35030604  7.76403361  0.00000000
   4.35030604  0.00000116  0.00000000
   7.09530604  0.00000116  0.00000000
   4.35030604  3.88201739  0.00000000
   9.84030604  7.76403361  0.00000000
   1.60530604  7.76403361  0.00000000
   4.35030604  9.70504173  1.94100811
   7.09530604  9.70504173  1.94100811
   4.35030604  1.94100927  1.94100811
   1.60530604  1.94100927  1.94100811
   9.84030604  1.94100927  1.94100811
   9.84030604  9.70504173  1.94100811
   7.09530604  1.94100927  1.94100811
   1.60530604  9.70504173  1.94100811
   4.35030604  5.82302550  1.94100811
   1.60530604  5.82302550  1.94100811
   9.84030604  5.82302550  1.94100811
   7.09530604  5.82302550  1.94100811
   7.10227773  0.00360350  3.86049485
   4.34352370  7.77899956  3.88065322
   7.08566061  7.78657958  3.89111022
   9.83596352  7.77631138  3.86576619
   1.61363092  0.00080239  3.85288301
   9.84151390 11.63790303  3.90386727
   4.35663237 11.63582208  3.90564770
   1.60317804  7.75810620  3.87861854
   4.32904677  3.87540489  3.85471780
   9.82881857  3.88286163  3.87638966
   7.08369605  3.89254861  3.87260775
   1.60099387  3.87677802  3.88803603
   7.09584247  1.93417580  5.77980160
   7.10176691  9.76548879  5.82467882
   4.36069888  9.66241824  5.87924586
   9.81029056  5.84951076  5.78606401
   1.61064719  9.71835598  5.76917019
   7.07466625  5.85997258  5.78834134
   4.32994038  1.96303349  5.82430983
   9.84040448  1.97582618  5.84070868
   4.34697104  5.83066519  5.77582645
   1.55285938  5.82352320  5.80252888
   1.59741483  1.90156003  5.80651126
   9.84496111  9.64224799  5.84920229
   7.05131222  3.95108860  7.59470448
   9.89039114 11.62647294  7.67266353
   1.60502634  7.89714703  7.72931152
   4.32147842  3.86633463  7.85944920
   7.14564022  0.08028619  7.77524464
   7.15873334  7.83873870  7.69802509
   4.40101986  0.00521680  7.73717515
   9.88415519  7.64310648  7.88554640
   4.40902806  7.69958122  7.94897700
   9.86067058  3.98967704  7.78148019
   1.55778468  3.76468956  7.75543039
   1.65202775 11.59821651  7.73235507
   7.18569405  9.85581449  9.69706729
   1.64869017  9.70950951  9.75205023
   4.49228788  9.86052742  9.74448398
   4.46737444  1.84117783  9.77127079
   1.60590727  1.83491060  9.72648178
   9.99221507  9.74155084  9.64271026
   9.96854703  1.79452947  9.56638532
   7.29164529  2.09511864  9.90924239
   9.61234551  4.55091957 10.83853419
   7.54589628  6.08583471  9.82093528
   1.23685719  5.91641325  9.69548351
   5.79237542  3.01833647  8.89484702
   7.78539998  4.11000175 10.17367517
 


--------------------------------------------------------------------------------------------------------


 use parallel FFT for wavefunctions z direction half grid
 k-point  1 :   0.0000 0.0000 0.0000  plane waves:   28608

 maximum and minimum number of plane-waves per node :      4774     4761

 maximum number of plane-waves:     28608
 maximum index in each direction: 
   IXMAX=   17   IYMAX=   18   IZMAX=   40
   IXMIN=  -17   IYMIN=  -18   IZMIN=    0

 NGX is ok and might be reduce to  70
 NGY is ok and might be reduce to  74
 NGZ is ok and might be reduce to 162

 real space projection operators:
  total allocation   :      66599.02 KBytes
  max/ min on nodes  :      11312.80      10969.95


 parallel 3D FFT for wavefunctions:
    minimum data exchange during FFTs selected (reduces bandwidth)
 parallel 3D FFT for charge:
    minimum data exchange during FFTs selected (reduces bandwidth)


 total amount of memory used by VASP on root node   155756. kBytes
========================================================================

   base      :      30000. kBytes
   nonlr-proj:      13575. kBytes
   fftplans  :      48666. kBytes
   grid      :      39988. kBytes
   one-center:        884. kBytes
   wavefun   :      22643. kBytes
 
     INWAV:  cpu time    1.99: real time    2.05
 Broyden mixing: mesh for mixing (old mesh)
   NGX = 35   NGY = 37   NGZ = 81
  (NGX  =144   NGY  =160   NGZ  =324)
  gives a total of 104895 points

 charge density for first step will be calculated from the start-wavefunctions


--------------------------------------------------------------------------------------------------------


 Maximum index for non-local projection operator          913
 Maximum index for augmentation-charges         5643 (set IRDMAX)


--------------------------------------------------------------------------------------------------------


 initial charge from wavefunction
 First call to EWALD:  gamma=   0.121
 Maximum number of real-space cells 4x 3x 2
 Maximum number of reciprocal cells 2x 2x 4

 FEWALD executed in parallel
    FEWALD:  cpu time    0.01: real time    0.01


----------------------------------------- Iteration    1(   1)  ---------------------------------------


    POTLOK:  cpu time    0.83: real time    0.83
    SETDIJ:  cpu time    5.15: real time    5.15
     EDDAV:  cpu time   28.40: real time   28.42
       DOS:  cpu time    0.00: real time    0.00
    CHARGE:  cpu time    2.31: real time    2.32
    MIXING:  cpu time    0.02: real time    0.02
    --------------------------------------------
      LOOP:  cpu time   36.72: real time   36.76

 eigenvalue-minimisations  :  3264
 total energy-change (2. order) :-0.8559878E+03  (-0.1561883E-03)
 number of electron     865.9999993 magnetization       2.0000000
 augmentation part       -9.5559142 magnetization       1.6354317

 DIPCOR: dipole corrections for dipol
 direction  3 min pos   228,
 dipolmoment           0.000000      0.000000      0.819394 electrons x Angstroem
 Tr[quadrupol]    -18603.124707

 energy correction for charged system         0.000000 eV
 dipol+quadrupol energy correction           -0.019233 eV
 added-field ion interaction          3.896159 eV  (added to PSCEN)


 Broyden mixing:
  rms(total) = 0.75291E-02    rms(broyden)= 0.75119E-02
  rms(prec ) = 0.77597E-02
  weight for this iteration     100.00

 Free energy of the ion-electron system (eV)
  ---------------------------------------------------
  alpha Z        PSCENC =      2189.51234676
  Ewald energy   TEWEN  =    251707.11350251
  -Hartree energ DENC   =   -318375.96722732
  -exchange      EXHF   =         0.00000000
  -V(xc)+E(xc)   XCENC  =      2237.68181281
  PAW double counting   =     66147.33814473   -65288.45105581
  entropy T*S    EENTRO =        -0.00000000
  eigenvalues    EBANDS =     -8828.56160261
  atomic energy  EATOM  =     69355.34630732
  ---------------------------------------------------
  free energy    TOTEN  =      -855.98777160 eV

  energy without entropy =     -855.98777160  energy(sigma->0) =     -855.98777160


--------------------------------------------------------------------------------------------------------




----------------------------------------- Iteration    1(   2)  ---------------------------------------


    POTLOK:  cpu time    0.83: real time    0.83
    SETDIJ:  cpu time    5.18: real time    5.18
    EDDIAG:  cpu time    3.43: real time    3.44
  RMM-DIIS:  cpu time    9.05: real time    9.07
    ORTHCH:  cpu time    0.34: real time    0.34
       DOS:  cpu time    0.00: real time    0.00
    --------------------------------------------
      LOOP:  cpu time   18.83: real time   18.88

 eigenvalue-minimisations  :  1539
 total energy-change (2. order) :-0.3914352E-04  (-0.4277481E-04)
 number of electron     865.9999993 magnetization       2.0000000
 augmentation part       -9.5559142 magnetization       1.6354317

 DIPCOR: dipole corrections for dipol
 direction  3 min pos   228,
 dipolmoment           0.000000      0.000000      0.819362 electrons x Angstroem
 Tr[quadrupol]    -18603.129249

 energy correction for charged system         0.000000 eV
 dipol+quadrupol energy correction           -0.019232 eV
 added-field ion interaction          3.896004 eV  (added to PSCEN)


 Free energy of the ion-electron system (eV)
  ---------------------------------------------------
  alpha Z        PSCENC =      2189.51219365
  Ewald energy   TEWEN  =    251707.11350251
  -Hartree energ DENC   =   -318376.10750772
  -exchange      EXHF   =         0.00000000
  -V(xc)+E(xc)   XCENC  =      2237.68431888
  PAW double counting   =     66147.37727556   -65288.48784008
  entropy T*S    EENTRO =        -0.00000000
  eigenvalues    EBANDS =     -8828.42606088
  atomic energy  EATOM  =     69355.34630732
  ---------------------------------------------------
  free energy    TOTEN  =      -855.98781074 eV

  energy without entropy =     -855.98781074  energy(sigma->0) =     -855.98781074


--------------------------------------------------------------------------------------------------------




 average (electrostatic) potential at core
  the test charge radii are     1.1513  0.7215  1.2059
  (the norm of the test charge is              1.0000)
       1 -84.7818       2 -84.7916       3 -84.7826       4 -84.7842       5 -84.7865
       6 -84.7764       7 -84.4134       8 -84.4208       9 -84.4174      10 -84.4095
      11 -84.4201      12 -84.4055      13 -84.5012      14 -84.5139      15 -84.4821
      16 -84.4848      17 -84.4988      18 -84.4807      19 -84.5285      20 -84.5339
      21 -84.4600      22 -84.4831      23 -84.4999      24 -84.3638      25 -84.2938
      26 -84.4329      27 -80.9901      28 -84.5287      29 -84.4557      30 -84.5221
      31 -84.3213      32 -84.3185      33 -84.4110      34 -81.3843      35 -84.0072
      36 -73.3015      37 -73.2932      38 -73.3030      39 -73.2995      40 -73.3035
      41 -73.3001      42 -73.2990      43 -73.2953      44 -73.2971      45 -73.2978
      46 -73.2988      47 -73.2967      48 -73.6337      49 -73.6482      50 -73.6336
      51 -73.6447      52 -73.6527      53 -73.6305      54 -73.6454      55 -73.6191
      56 -73.6539      57 -73.6666      58 -73.6625      59 -73.6806      60 -73.6389
      61 -73.6171      62 -73.6187      63 -73.6404      64 -73.6814      65 -73.6583
      66 -73.6283      67 -73.6570      68 -73.7068      69 -73.6061      70 -73.6449
      71 -73.6035      72 -73.5241      73 -73.5367      74 -73.6114      75 -73.5954
      76 -73.4780      77 -73.6466      78 -73.5557      79 -73.6336      80 -73.4771
      81 -73.6281      82 -73.5413      83 -73.6746      84 -74.2927      85 -73.7878
      86 -73.8100      87 -74.0462      88 -73.7838      89 -73.7859      90 -73.7788
      91 -73.7963      92 -73.3902      93 -73.6910      94 -73.5667      95 -73.8761
      96 -73.4079      97 -73.4148      98 -73.2162      99 -73.8040     100 -73.2430
     101 -73.4905     102 -73.3717     103 -74.4324     104 -73.4602     105 -73.5804
     106 -73.2181     107 -73.3287     108 -72.1521
 
 
 
 E-fermi :   1.4185     XC(G=0):  -5.8647     alpha+bet : -7.4169


 spin component 1

 k-point     1 :       0.0000    0.0000    0.0000
  band No.  band energies     occupation 
      1     -34.1225      1.00000
      2     -34.1161      1.00000
      3     -34.0861      1.00000
      4     -34.0817      1.00000
      5     -34.0803      1.00000
      6     -34.0751      1.00000
      7     -33.8109      1.00000
      8     -33.7532      1.00000
      9     -33.7172      1.00000
     10     -33.6904      1.00000
     11     -33.6809      1.00000
     12     -33.6792      1.00000
     13     -33.6732      1.00000
     14     -33.6608      1.00000
     15     -33.6540      1.00000
     16     -33.6387      1.00000
     17     -33.6319      1.00000
     18     -33.6300      1.00000
     19     -33.6273      1.00000
     20     -33.6181      1.00000
     21     -33.6158      1.00000
     22     -33.6024      1.00000
     23     -33.5965      1.00000
     24     -33.5943      1.00000
     25     -33.5697      1.00000
     26     -33.5635      1.00000
     27     -33.5450      1.00000
     28     -33.5425      1.00000
     29     -33.5294      1.00000
     30     -33.5281      1.00000
     31     -33.5204      1.00000
     32     -33.5194      1.00000
     33     -33.3858      1.00000
     34     -32.4595      1.00000
     35     -32.0345      1.00000
     36     -19.1315      1.00000
     37     -19.0200      1.00000
     38     -18.9962      1.00000
     39     -18.9063      1.00000
     40     -18.8906      1.00000
     41     -18.8819      1.00000
     42     -18.8008      1.00000
     43     -18.7827      1.00000
     44     -18.7623      1.00000
     45     -18.7562      1.00000
     46     -18.7045      1.00000
     47     -18.6576      1.00000
     48     -18.6509      1.00000
     49     -18.6203      1.00000
     50     -18.6103      1.00000
     51     -18.5782      1.00000
     52     -18.5765      1.00000
     53     -18.5559      1.00000
     54     -18.5297      1.00000
     55     -18.5040      1.00000
     56     -18.4999      1.00000
     57     -18.4758      1.00000
     58     -18.4323      1.00000
     59     -18.4156      1.00000
     60     -18.4053      1.00000
     61     -18.3594      1.00000
     62     -18.3347      1.00000
     63     -18.3254      1.00000
     64     -18.3147      1.00000
     65     -18.2858      1.00000
     66     -18.2481      1.00000
     67     -18.2138      1.00000
     68     -18.1824      1.00000
     69     -18.1550      1.00000
     70     -18.1516      1.00000
     71     -18.1460      1.00000
     72     -18.1369      1.00000
     73     -18.0998      1.00000
     74     -18.0598      1.00000
     75     -18.0530      1.00000
     76     -17.9711      1.00000
     77     -17.8685      1.00000
     78     -17.8249      1.00000
     79     -17.7774      1.00000
     80     -17.7412      1.00000
     81     -17.6946      1.00000
     82     -17.6373      1.00000
     83     -17.6226      1.00000
     84     -17.4680      1.00000
     85     -17.4433      1.00000
     86     -17.2944      1.00000
     87     -17.2681      1.00000
     88     -17.2037      1.00000
     89     -17.0309      1.00000
     90     -17.0047      1.00000
     91     -16.9996      1.00000
     92     -16.9465      1.00000
     93     -16.9333      1.00000
     94     -16.8389      1.00000
     95     -16.7611      1.00000
     96     -16.7507      1.00000
     97     -16.7175      1.00000
     98     -16.6789      1.00000
     99     -16.6639      1.00000
    100     -16.6569      1.00000
    101     -16.6472      1.00000
    102     -16.6043      1.00000
    103     -16.5658      1.00000
    104     -16.4386      1.00000
    105     -16.3998      1.00000
    106     -16.3853      1.00000
    107     -16.3525      1.00000
    108     -16.3434      1.00000
    109     -16.3411      1.00000
    110     -16.3195      1.00000
    111     -16.3113      1.00000
    112     -16.2971      1.00000
    113     -16.2902      1.00000
    114     -16.2807      1.00000
    115     -16.2732      1.00000
    116     -16.2631      1.00000
    117     -16.2605      1.00000
    118     -16.2384      1.00000
    119     -16.2291      1.00000
    120     -16.1935      1.00000
    121     -16.1807      1.00000
    122     -16.1715      1.00000
    123     -16.1472      1.00000
    124     -16.1437      1.00000
    125     -16.1307      1.00000
    126     -16.1119      1.00000
    127     -16.1028      1.00000
    128     -16.0917      1.00000
    129     -16.0769      1.00000
    130     -16.0578      1.00000
    131     -16.0528      1.00000
    132     -16.0374      1.00000
    133     -16.0342      1.00000
    134     -16.0049      1.00000
    135     -15.9943      1.00000
    136     -15.9859      1.00000
    137     -15.9468      1.00000
    138     -15.8945      1.00000
    139     -15.8838      1.00000
    140     -15.8630      1.00000
    141     -15.8383      1.00000
    142     -15.7927      1.00000
    143     -15.7280      1.00000
    144     -15.6634      1.00000
    145     -15.6467      1.00000
    146     -15.6431      1.00000
    147     -15.5867      1.00000
    148     -15.5581      1.00000
    149     -15.4913      1.00000
    150     -15.4712      1.00000
    151     -15.4291      1.00000
    152     -15.3625      1.00000
    153     -15.3540      1.00000
    154     -15.3201      1.00000
    155     -15.2704      1.00000
    156     -15.1855      1.00000
    157     -15.1684      1.00000
    158     -15.1240      1.00000
    159     -15.0747      1.00000
    160     -14.9949      1.00000
    161     -14.8714      1.00000
    162     -14.8248      1.00000
    163     -14.7461      1.00000
    164     -14.7039      1.00000
    165     -14.6624      1.00000
    166     -14.5649      1.00000
    167     -14.4841      1.00000
    168     -14.4120      1.00000
    169     -14.3590      1.00000
    170     -14.3185      1.00000
    171     -14.2847      1.00000
    172     -14.1726      1.00000
    173     -14.1404      1.00000
    174     -14.0703      1.00000
    175     -14.0472      1.00000
    176     -14.0356      1.00000
    177     -14.0000      1.00000
    178     -13.9822      1.00000
    179     -13.9744      1.00000
    180     -13.9543      1.00000
    181     -13.9333      1.00000
    182     -13.9231      1.00000
    183     -13.8933      1.00000
    184     -13.8587      1.00000
    185     -13.8532      1.00000
    186     -13.8310      1.00000
    187     -13.8178      1.00000
    188     -13.7744      1.00000
    189     -13.7352      1.00000
    190     -13.7175      1.00000
    191     -13.6996      1.00000
    192     -13.6838      1.00000
    193     -13.6205      1.00000
    194     -13.6070      1.00000
    195     -13.5590      1.00000
    196     -13.5152      1.00000
    197     -13.4694      1.00000
    198     -13.4532      1.00000
    199     -13.4489      1.00000
    200     -13.4020      1.00000
    201     -13.3491      1.00000
    202     -13.3380      1.00000
    203     -13.2756      1.00000
    204     -13.2340      1.00000
    205     -13.1919      1.00000
    206     -13.0981      1.00000
    207     -13.0364      1.00000
    208     -13.0084      1.00000
    209     -12.9852      1.00000
    210     -12.8792      1.00000
    211     -12.7083      1.00000
    212      -5.1530      1.00000
    213      -4.9769      1.00000
    214      -4.8173      1.00000
    215      -4.3165      1.00000
    216      -4.0832      1.00000
    217      -3.9825      1.00000
    218      -3.9364      1.00000
    219      -3.8998      1.00000
    220      -3.8360      1.00000
    221      -3.7972      1.00000
    222      -3.7089      1.00000
    223      -3.6749      1.00000
    224      -3.6554      1.00000
    225      -3.5820      1.00000
    226      -3.5189      1.00000
    227      -3.5026      1.00000
    228      -3.4062      1.00000
    229      -3.3851      1.00000
    230      -3.3594      1.00000
    231      -3.3279      1.00000
    232      -3.3058      1.00000
    233      -3.2894      1.00000
    234      -3.2714      1.00000
    235      -3.2672      1.00000
    236      -3.2602      1.00000
    237      -3.2557      1.00000
    238      -3.2281      1.00000
    239      -3.2222      1.00000
    240      -3.2038      1.00000
    241      -3.1882      1.00000
    242      -3.1729      1.00000
    243      -3.1606      1.00000
    244      -3.1485      1.00000
    245      -3.1324      1.00000
    246      -3.0962      1.00000
    247      -3.0857      1.00000
    248      -3.0754      1.00000
    249      -3.0629      1.00000
    250      -3.0556      1.00000
    251      -3.0448      1.00000
    252      -3.0201      1.00000
    253      -2.9892      1.00000
    254      -2.9753      1.00000
    255      -2.9643      1.00000
    256      -2.9557      1.00000
    257      -2.9431      1.00000
    258      -2.9057      1.00000
    259      -2.8939      1.00000
    260      -2.8846      1.00000
    261      -2.8765      1.00000
    262      -2.8427      1.00000
    263      -2.8412      1.00000
    264      -2.8113      1.00000
    265      -2.8047      1.00000
    266      -2.7859      1.00000
    267      -2.7744      1.00000
    268      -2.7610      1.00000
    269      -2.7533      1.00000
    270      -2.7407      1.00000
    271      -2.7176      1.00000
    272      -2.7061      1.00000
    273      -2.6324      1.00000
    274      -2.6184      1.00000
    275      -2.6139      1.00000
    276      -2.5895      1.00000
    277      -2.5612      1.00000
    278      -2.5326      1.00000
    279      -2.5236      1.00000
    280      -2.5145      1.00000
    281      -2.4624      1.00000
    282      -2.4551      1.00000
    283      -2.4400      1.00000
    284      -2.4256      1.00000
    285      -2.4150      1.00000
    286      -2.4033      1.00000
    287      -2.3795      1.00000
    288      -2.3465      1.00000
    289      -2.3383      1.00000
    290      -2.3208      1.00000
    291      -2.2979      1.00000
    292      -2.2796      1.00000
    293      -2.2586      1.00000
    294      -2.2462      1.00000
    295      -2.2371      1.00000
    296      -2.1927      1.00000
    297      -2.1526      1.00000
    298      -2.1343      1.00000
    299      -2.1208      1.00000
    300      -2.1068      1.00000
    301      -2.0846      1.00000
    302      -2.0769      1.00000
    303      -2.0405      1.00000
    304      -2.0266      1.00000
    305      -2.0061      1.00000
    306      -1.9958      1.00000
    307      -1.9822      1.00000
    308      -1.9509      1.00000
    309      -1.9182      1.00000
    310      -1.9043      1.00000
    311      -1.9001      1.00000
    312      -1.8844      1.00000
    313      -1.8700      1.00000
    314      -1.8539      1.00000
    315      -1.8476      1.00000
    316      -1.8433      1.00000
    317      -1.8251      1.00000
    318      -1.8208      1.00000
    319      -1.8121      1.00000
    320      -1.7817      1.00000
    321      -1.7765      1.00000
    322      -1.7715      1.00000
    323      -1.7666      1.00000
    324      -1.7658      1.00000
    325      -1.7295      1.00000
    326      -1.7245      1.00000
    327      -1.7086      1.00000
    328      -1.6902      1.00000
    329      -1.6664      1.00000
    330      -1.6472      1.00000
    331      -1.6364      1.00000
    332      -1.6280      1.00000
    333      -1.6078      1.00000
    334      -1.5791      1.00000
    335      -1.5500      1.00000
    336      -1.5408      1.00000
    337      -1.5381      1.00000
    338      -1.5234      1.00000
    339      -1.4969      1.00000
    340      -1.4876      1.00000
    341      -1.4808      1.00000
    342      -1.4623      1.00000
    343      -1.4423      1.00000
    344      -1.4233      1.00000
    345      -1.4088      1.00000
    346      -1.3628      1.00000
    347      -1.3492      1.00000
    348      -1.3460      1.00000
    349      -1.3280      1.00000
    350      -1.3146      1.00000
    351      -1.3051      1.00000
    352      -1.2809      1.00000
    353      -1.2739      1.00000
    354      -1.2703      1.00000
    355      -1.2573      1.00000
    356      -1.2227      1.00000
    357      -1.2157      1.00000
    358      -1.2031      1.00000
    359      -1.1788      1.00000
    360      -1.1657      1.00000
    361      -1.1580      1.00000
    362      -1.1445      1.00000
    363      -1.1373      1.00000
    364      -1.1252      1.00000
    365      -1.0951      1.00000
    366      -1.0714      1.00000
    367      -1.0648      1.00000
    368      -1.0523      1.00000
    369      -1.0436      1.00000
    370      -1.0386      1.00000
    371      -1.0246      1.00000
    372      -1.0143      1.00000
    373      -1.0006      1.00000
    374      -0.9823      1.00000
    375      -0.9787      1.00000
    376      -0.9728      1.00000
    377      -0.9659      1.00000
    378      -0.9606      1.00000
    379      -0.9483      1.00000
    380      -0.9203      1.00000
    381      -0.9191      1.00000
    382      -0.9055      1.00000
    383      -0.8955      1.00000
    384      -0.8596      1.00000
    385      -0.8485      1.00000
    386      -0.8292      1.00000
    387      -0.7898      1.00000
    388      -0.7880      1.00000
    389      -0.7673      1.00000
    390      -0.7516      1.00000
    391      -0.7263      1.00000
    392      -0.7141      1.00000
    393      -0.7107      1.00000
    394      -0.6948      1.00000
    395      -0.6902      1.00000
    396      -0.6777      1.00000
    397      -0.6708      1.00000
    398      -0.6464      1.00000
    399      -0.6381      1.00000
    400      -0.6187      1.00000
    401      -0.6090      1.00000
    402      -0.5963      1.00000
    403      -0.5804      1.00000
    404      -0.5631      1.00000
    405      -0.5557      1.00000
    406      -0.5480      1.00000
    407      -0.5224      1.00000
    408      -0.4949      1.00000
    409      -0.4904      1.00000
    410      -0.4855      1.00000
    411      -0.4732      1.00000
    412      -0.4666      1.00000
    413      -0.4458      1.00000
    414      -0.4354      1.00000
    415      -0.4288      1.00000
    416      -0.3946      1.00000
    417      -0.3920      1.00000
    418      -0.3755      1.00000
    419      -0.3645      1.00000
    420      -0.3241      1.00000
    421      -0.2966      1.00000
    422      -0.2689      1.00000
    423      -0.0966      1.00000
    424      -0.0557      1.00000
    425       0.0768      1.00000
    426       0.0799      1.00000
    427       0.1112      1.00000
    428       0.3418      1.00000
    429       0.4568      1.00000
    430       0.5173      1.00000
    431       0.7071      1.00000
    432       0.9165      1.00000
    433       1.0046      1.00000
    434       1.1387      1.00000
    435       1.7015      0.00000
    436       1.7904      0.00000
    437       1.7937      0.00000
    438       1.7944      0.00000
    439       1.7990      0.00000
    440       1.8075      0.00000
    441       1.8100      0.00000
    442       1.8128      0.00000
    443       1.8315      0.00000
    444       1.8360      0.00000
    445       1.8757      0.00000
    446       1.8872      0.00000
    447       1.8893      0.00000
    448       1.8921      0.00000
    449       1.9087      0.00000
    450       1.9132      0.00000
    451       1.9179      0.00000
    452       1.9217      0.00000
    453       1.9244      0.00000
    454       1.9578      0.00000
    455       1.9781      0.00000
    456       1.9973      0.00000
    457       1.9984      0.00000
    458       2.0027      0.00000
    459       2.0111      0.00000
    460       2.0133      0.00000
    461       2.0173      0.00000
    462       2.0199      0.00000
    463       2.0242      0.00000
    464       2.0273      0.00000
    465       2.0286      0.00000
    466       2.0316      0.00000
    467       2.0448      0.00000
    468       2.0474      0.00000
    469       2.0564      0.00000
    470       2.0606      0.00000
    471       2.0642      0.00000
    472       2.0804      0.00000
    473       2.0883      0.00000
    474       2.0924      0.00000
    475       2.0999      0.00000
    476       2.1074      0.00000
    477       2.1201      0.00000
    478       2.1229      0.00000
    479       2.1243      0.00000
    480       2.1286      0.00000
    481       2.1324      0.00000
    482       2.1394      0.00000
    483       2.1467      0.00000
    484       2.1525      0.00000
    485       2.1563      0.00000
    486       2.1586      0.00000
    487       2.1634      0.00000
    488       2.1675      0.00000
    489       2.1711      0.00000
    490       2.1781      0.00000
    491       2.1793      0.00000
    492       2.1820      0.00000
    493       2.1894      0.00000
    494       2.1941      0.00000
    495       2.1973      0.00000
    496       2.1991      0.00000
    497       2.2027      0.00000
    498       2.2055      0.00000
    499       2.2077      0.00000
    500       2.2110      0.00000
    501       2.2122      0.00000
    502       2.2149      0.00000
    503       2.2183      0.00000
    504       2.2198      0.00000
    505       2.2275      0.00000
    506       2.2297      0.00000
    507       2.2310      0.00000
    508       2.2341      0.00000
    509       2.2361      0.00000
    510       2.2388      0.00000
    511       2.2409      0.00000
    512       2.2420      0.00000
    513       2.2457      0.00000
    514       2.2465      0.00000
    515       2.2501      0.00000
    516       2.2531      0.00000
    517       2.2560      0.00000
    518       2.2578      0.00000
    519       2.2585      0.00000
    520       2.2610      0.00000
    521       2.2631      0.00000
    522       2.2678      0.00000
    523       2.2710      0.00000
    524       2.2741      0.00000
    525       2.2759      0.00000
    526       2.2796      0.00000
    527       2.2852      0.00000
    528       2.2878      0.00000
    529       2.2892      0.00000
    530       2.2912      0.00000
    531       2.2957      0.00000
    532       2.2973      0.00000
    533       2.2979      0.00000
    534       2.3010      0.00000
    535       2.3032      0.00000
    536       2.3089      0.00000
    537       2.3122      0.00000
    538       2.3138      0.00000
    539       2.3185      0.00000
    540       2.3236      0.00000
    541       2.3312      0.00000
    542       2.3344      0.00000
    543       2.3362      0.00000
    544       2.3378      0.00000
    545       2.3394      0.00000
    546       2.3443      0.00000
    547       2.3476      0.00000
    548       2.3501      0.00000
    549       2.3550      0.00000
    550       2.3587      0.00000
    551       2.3616      0.00000
    552       2.3648      0.00000
    553       2.3697      0.00000
    554       2.3725      0.00000
    555       2.3757      0.00000
    556       2.3789      0.00000
    557       2.3806      0.00000
    558       2.3851      0.00000
    559       2.3925      0.00000
    560       2.3953      0.00000
    561       2.3978      0.00000
    562       2.4003      0.00000
    563       2.4013      0.00000
    564       2.4034      0.00000
    565       2.4047      0.00000
    566       2.4090      0.00000
    567       2.4128      0.00000
    568       2.4139      0.00000
    569       2.4178      0.00000
    570       2.4207      0.00000
    571       2.4255      0.00000
    572       2.4297      0.00000
    573       2.4321      0.00000
    574       2.4330      0.00000
    575       2.4382      0.00000
    576       2.4413      0.00000

 spin component 2

 k-point     1 :       0.0000    0.0000    0.0000
  band No.  band energies     occupation 
      1     -34.1225      1.00000
      2     -34.1161      1.00000
      3     -34.0861      1.00000
      4     -34.0817      1.00000
      5     -34.0803      1.00000
      6     -34.0751      1.00000
      7     -33.8102      1.00000
      8     -33.7522      1.00000
      9     -33.7154      1.00000
     10     -33.6894      1.00000
     11     -33.6799      1.00000
     12     -33.6779      1.00000
     13     -33.6726      1.00000
     14     -33.6601      1.00000
     15     -33.6535      1.00000
     16     -33.6382      1.00000
     17     -33.6314      1.00000
     18     -33.6294      1.00000
     19     -33.6264      1.00000
     20     -33.6173      1.00000
     21     -33.6153      1.00000
     22     -33.6016      1.00000
     23     -33.5957      1.00000
     24     -33.5933      1.00000
     25     -33.5694      1.00000
     26     -33.5632      1.00000
     27     -33.5445      1.00000
     28     -33.5424      1.00000
     29     -33.5293      1.00000
     30     -33.5281      1.00000
     31     -33.5204      1.00000
     32     -33.5194      1.00000
     33     -33.3845      1.00000
     34     -32.0164      1.00000
     35     -31.5967      1.00000
     36     -19.1301      1.00000
     37     -19.0195      1.00000
     38     -18.9938      1.00000
     39     -18.9052      1.00000
     40     -18.8889      1.00000
     41     -18.8797      1.00000
     42     -18.7990      1.00000
     43     -18.7817      1.00000
     44     -18.7612      1.00000
     45     -18.7551      1.00000
     46     -18.7013      1.00000
     47     -18.6561      1.00000
     48     -18.6487      1.00000
     49     -18.6198      1.00000
     50     -18.6097      1.00000
     51     -18.5770      1.00000
     52     -18.5760      1.00000
     53     -18.5546      1.00000
     54     -18.5279      1.00000
     55     -18.5028      1.00000
     56     -18.4965      1.00000
     57     -18.4745      1.00000
     58     -18.4310      1.00000
     59     -18.4115      1.00000
     60     -18.4034      1.00000
     61     -18.3569      1.00000
     62     -18.3329      1.00000
     63     -18.3207      1.00000
     64     -18.3128      1.00000
     65     -18.2844      1.00000
     66     -18.2440      1.00000
     67     -18.2070      1.00000
     68     -18.1812      1.00000
     69     -18.1547      1.00000
     70     -18.1505      1.00000
     71     -18.1460      1.00000
     72     -18.1343      1.00000
     73     -18.0990      1.00000
     74     -18.0594      1.00000
     75     -18.0524      1.00000
     76     -17.9619      1.00000
     77     -17.8584      1.00000
     78     -17.8235      1.00000
     79     -17.7764      1.00000
     80     -17.7397      1.00000
     81     -17.6884      1.00000
     82     -17.6213      1.00000
     83     -17.6122      1.00000
     84     -17.4624      1.00000
     85     -17.4396      1.00000
     86     -17.2897      1.00000
     87     -17.2545      1.00000
     88     -17.1952      1.00000
     89     -17.0238      1.00000
     90     -17.0030      1.00000
     91     -16.9976      1.00000
     92     -16.9423      1.00000
     93     -16.9312      1.00000
     94     -16.8385      1.00000
     95     -16.7583      1.00000
     96     -16.7473      1.00000
     97     -16.7150      1.00000
     98     -16.6770      1.00000
     99     -16.6639      1.00000
    100     -16.6569      1.00000
    101     -16.6456      1.00000
    102     -16.6032      1.00000
    103     -16.5634      1.00000
    104     -16.4360      1.00000
    105     -16.3974      1.00000
    106     -16.3852      1.00000
    107     -16.3508      1.00000
    108     -16.3434      1.00000
    109     -16.3376      1.00000
    110     -16.3183      1.00000
    111     -16.3099      1.00000
    112     -16.2951      1.00000
    113     -16.2891      1.00000
    114     -16.2799      1.00000
    115     -16.2725      1.00000
    116     -16.2626      1.00000
    117     -16.2596      1.00000
    118     -16.2356      1.00000
    119     -16.2274      1.00000
    120     -16.1905      1.00000
    121     -16.1728      1.00000
    122     -16.1655      1.00000
    123     -16.1462      1.00000
    124     -16.1428      1.00000
    125     -16.1297      1.00000
    126     -16.1108      1.00000
    127     -16.0999      1.00000
    128     -16.0874      1.00000
    129     -16.0760      1.00000
    130     -16.0497      1.00000
    131     -16.0465      1.00000
    132     -16.0336      1.00000
    133     -16.0312      1.00000
    134     -15.9977      1.00000
    135     -15.9942      1.00000
    136     -15.9833      1.00000
    137     -15.9391      1.00000
    138     -15.8904      1.00000
    139     -15.8744      1.00000
    140     -15.8553      1.00000
    141     -15.8186      1.00000
    142     -15.7758      1.00000
    143     -15.6970      1.00000
    144     -15.6382      1.00000
    145     -15.6351      1.00000
    146     -15.6023      1.00000
    147     -15.5518      1.00000
    148     -15.5149      1.00000
    149     -15.4851      1.00000
    150     -15.4048      1.00000
    151     -15.3896      1.00000
    152     -15.3483      1.00000
    153     -15.3328      1.00000
    154     -15.3143      1.00000
    155     -15.2575      1.00000
    156     -15.1731      1.00000
    157     -15.1130      1.00000
    158     -15.0817      1.00000
    159     -15.0486      1.00000
    160     -14.9273      1.00000
    161     -14.8259      1.00000
    162     -14.7807      1.00000
    163     -14.7238      1.00000
    164     -14.6730      1.00000
    165     -14.6262      1.00000
    166     -14.5248      1.00000
    167     -14.4412      1.00000
    168     -14.3952      1.00000
    169     -14.3314      1.00000
    170     -14.2711      1.00000
    171     -14.2503      1.00000
    172     -14.1530      1.00000
    173     -14.1275      1.00000
    174     -14.0666      1.00000
    175     -14.0426      1.00000
    176     -14.0284      1.00000
    177     -13.9938      1.00000
    178     -13.9722      1.00000
    179     -13.9658      1.00000
    180     -13.9454      1.00000
    181     -13.9221      1.00000
    182     -13.9138      1.00000
    183     -13.8882      1.00000
    184     -13.8486      1.00000
    185     -13.8399      1.00000
    186     -13.8242      1.00000
    187     -13.7974      1.00000
    188     -13.7640      1.00000
    189     -13.7208      1.00000
    190     -13.7068      1.00000
    191     -13.6916      1.00000
    192     -13.6665      1.00000
    193     -13.6123      1.00000
    194     -13.5947      1.00000
    195     -13.5216      1.00000
    196     -13.4946      1.00000
    197     -13.4504      1.00000
    198     -13.4452      1.00000
    199     -13.4284      1.00000
    200     -13.3630      1.00000
    201     -13.3221      1.00000
    202     -13.3121      1.00000
    203     -13.2525      1.00000
    204     -13.2122      1.00000
    205     -13.1400      1.00000
    206     -13.0742      1.00000
    207     -13.0325      1.00000
    208     -12.9692      1.00000
    209     -12.9370      1.00000
    210     -12.8595      1.00000
    211     -12.6827      1.00000
    212      -5.1513      1.00000
    213      -4.9759      1.00000
    214      -4.8160      1.00000
    215      -4.3144      1.00000
    216      -4.0831      1.00000
    217      -3.9820      1.00000
    218      -3.9354      1.00000
    219      -3.8990      1.00000
    220      -3.8336      1.00000
    221      -3.7967      1.00000
    222      -3.7073      1.00000
    223      -3.6735      1.00000
    224      -3.6541      1.00000
    225      -3.5814      1.00000
    226      -3.5176      1.00000
    227      -3.5018      1.00000
    228      -3.4046      1.00000
    229      -3.3842      1.00000
    230      -3.3587      1.00000
    231      -3.3264      1.00000
    232      -3.3055      1.00000
    233      -3.2891      1.00000
    234      -3.2711      1.00000
    235      -3.2666      1.00000
    236      -3.2598      1.00000
    237      -3.2557      1.00000
    238      -3.2281      1.00000
    239      -3.2207      1.00000
    240      -3.2034      1.00000
    241      -3.1877      1.00000
    242      -3.1725      1.00000
    243      -3.1604      1.00000
    244      -3.1475      1.00000
[...]
      5.77049     11.61637      9.56958         0.003089     -0.005040     -0.001413
      0.34450      7.93690      9.56524        -0.005095      0.003628      0.005303
      5.96604      7.93634      9.66757         0.008183     -0.008025      0.010319
      0.21537      3.74552      9.66780         0.004844      0.000619     -0.018038
      7.09531      3.88202      0.00000         1.148893      0.010094     -0.461705
      1.60531      0.00000      0.00000         1.135061      0.006466     -0.455795
      7.09531      7.76403      0.00000         1.138819     -0.009021     -0.451758
      9.84031      0.00000      0.00000        -1.142560      0.004353     -0.463222
      9.84031      3.88202      0.00000        -1.140172      0.005111     -0.454771
      1.60531      3.88202      0.00000         1.136541      0.005868     -0.453948
      4.35031      7.76403      0.00000        -1.135646     -0.008900     -0.455239
      4.35031      0.00000      0.00000        -1.139918      0.001876     -0.463011
      7.09531      0.00000      0.00000         1.140475      0.000691     -0.456160
      4.35031      3.88202      0.00000        -1.145527      0.005539     -0.466175
      9.84031      7.76403      0.00000        -1.149981     -0.009280     -0.465851
      1.60531      7.76403      0.00000         1.145823     -0.013725     -0.465129
      4.35031      9.70504      1.94101        -0.344021      0.029705     -0.340150
      7.09531      9.70504      1.94101         0.358185     -0.013917     -0.348356
      4.35031      1.94101      1.94101        -0.352502     -0.081385     -0.312282
      1.60531      1.94101      1.94101         0.334178      0.026415     -0.354973
      9.84031      1.94101      1.94101        -0.355082     -0.040856     -0.295800
      9.84031      9.70504      1.94101        -0.382807      0.058877     -0.326628
      7.09531      1.94101      1.94101         0.359879      0.035316     -0.336385
      1.60531      9.70504      1.94101         0.361397     -0.034345     -0.321160
      4.35031      5.82303      1.94101        -0.348527      0.043017     -0.315914
      1.60531      5.82303      1.94101         0.350564     -0.019013     -0.336558
      9.84031      5.82303      1.94101        -0.350653      0.007459     -0.357634
      7.09531      5.82303      1.94101         0.347235      0.070565     -0.344737
      7.10228      0.00360      3.86049        -0.000439      0.002093      0.000991
      4.34352      7.77900      3.88065         0.001252     -0.007687      0.001877
      7.08566      7.78658      3.89111         0.002721     -0.004197      0.001707
      9.83596      7.77631      3.86577         0.000543     -0.008157      0.003600
      1.61363      0.00080      3.85288         0.004311      0.000663     -0.000636
      9.84151     11.63790      3.90387         0.000555      0.008893     -0.003124
      4.35663     11.63582      3.90565        -0.003888     -0.005998      0.004296
      1.60318      7.75811      3.87862        -0.002176     -0.007729      0.005193
      4.32905      3.87540      3.85472        -0.000533      0.012002      0.013441
      9.82882      3.88286      3.87639        -0.000593      0.000360      0.009853
      7.08370      3.89255      3.87261        -0.000219      0.000192      0.003766
      1.60099      3.87678      3.88804         0.003577     -0.000017      0.002834
      7.09584      1.93418      5.77980         0.004733      0.009406     -0.004239
      7.10177      9.76549      5.82468         0.001459     -0.008633      0.005832
      4.36070      9.66242      5.87925         0.000863      0.002579     -0.003537
      9.81029      5.84951      5.78606         0.001860      0.003344      0.005757
      1.61065      9.71836      5.76917         0.000460     -0.001269      0.004104
      7.07467      5.85997      5.78834         0.011279      0.002904      0.017241
      4.32994      1.96303      5.82431         0.001883      0.003221      0.000996
      9.84040      1.97583      5.84071         0.002521     -0.003159     -0.007735
      4.34697      5.83067      5.77583        -0.006671     -0.005911     -0.000477
      1.55286      5.82352      5.80253        -0.011777      0.004352     -0.000826
      1.59741      1.90156      5.80651        -0.002937      0.008568      0.001447
      9.84496      9.64225      5.84920        -0.000319      0.000193     -0.004556
      7.05131      3.95109      7.59470        -0.010932      0.000861     -0.001289
      9.89039     11.62647      7.67266        -0.002407     -0.004653     -0.006408
      1.60503      7.89715      7.72931        -0.011720     -0.015311     -0.015556
      4.32148      3.86633      7.85945        -0.005570      0.022418      0.003164
      7.14564      0.08029      7.77524         0.012513     -0.012633     -0.003549
      7.15873      7.83874      7.69803        -0.025276     -0.006005      0.011713
      4.40102      0.00522      7.73718        -0.007474      0.004971     -0.019527
      9.88416      7.64311      7.88555         0.017420      0.004966     -0.005783
      4.40903      7.69958      7.94898         0.019493     -0.013981      0.007342
      9.86067      3.98968      7.78148         0.003998     -0.009527      0.002961
      1.55778      3.76469      7.75543         0.014433      0.002616     -0.002934
      1.65203     11.59822      7.73236        -0.002148      0.008677     -0.004482
      7.18569      9.85581      9.69707         0.011178     -0.028932     -0.014000
      1.64869      9.70951      9.75205         0.005095      0.001774      0.002408
      4.49229      9.86053      9.74448        -0.011313     -0.025623      0.005021
      4.46737      1.84118      9.77127        -0.001948      0.006498      0.004307
      1.60591      1.83491      9.72648         0.016803     -0.018135      0.006229
      9.99222      9.74155      9.64271        -0.013907     -0.000208     -0.001186
      9.96855      1.79453      9.56639        -0.001454     -0.006187      0.009565
      7.29165      2.09512      9.90924        -0.003566     -0.004815     -0.014162
      9.61235      4.55092     10.83853        -0.002754      0.016407      0.034399
      7.54590      6.08583      9.82094         0.020912      0.005875     -0.019497
      1.23686      5.91641      9.69548        -0.001671      0.000154     -0.008544
      5.79238      3.01834      8.89485         0.014154     -0.010286     -0.009617
      7.78540      4.11000     10.17368         0.002262      0.023478      0.030284
 -----------------------------------------------------------------------------------
    total drift:                               -0.047375      0.031417     -0.013230


--------------------------------------------------------------------------------------------------------



  FREE ENERGIE OF THE ION-ELECTRON SYSTEM (eV)
  ---------------------------------------------------
  free  energy   TOTEN  =      -876.61704705 eV

  energy  without entropy=     -876.61704705  energy(sigma->0) =     -876.61704705
 


--------------------------------------------------------------------------------------------------------


    POTLOK:  cpu time    6.00: real time    6.00


--------------------------------------------------------------------------------------------------------


 stress matrix after NEB project (eV)
    -64.01351      3.68525      0.91093
      3.68565   -110.01002     -0.88600
      0.91098     -0.88529    -66.12576
  FORCES: max atom, RMS     0.038386    0.012585
  FORCE total and by dimension    0.130785    0.034399
  Stress total and by dimension  143.537253  110.010021


--------------------------------------------------------------------------------------------------------


  
 reached required accuracy - stopping structural energy minimisation
 writing wavefunctions
     LOOP+:  cpu time  134.96: real time  138.24
    4ORBIT:  cpu time    0.00: real time    0.00
 


 total charge     
 
# of ion     s       p       d       f       tot
------------------------------------------------
  1        1.992   5.764   0.872   0.772   9.400
  2        1.992   5.764   0.872   0.775   9.403
  3        1.992   5.764   0.872   0.774   9.402
  4        1.992   5.764   0.872   0.774   9.402
  5        1.992   5.764   0.872   0.774   9.402
  6        1.992   5.764   0.873   0.773   9.401
  7        1.993   5.818   0.902   0.722   9.435
  8        1.993   5.818   0.901   0.721   9.434
  9        1.993   5.818   0.903   0.722   9.437
 10        1.994   5.819   0.907   0.723   9.443
 11        1.993   5.818   0.901   0.721   9.434
 12        1.994   5.819   0.905   0.722   9.440
 13        1.994   5.819   0.911   0.725   9.449
 14        1.994   5.819   0.909   0.724   9.447
 15        1.995   5.820   0.914   0.726   9.454
 16        1.995   5.820   0.916   0.727   9.458
 17        1.994   5.820   0.913   0.725   9.453
 18        1.995   5.819   0.912   0.725   9.452
 19        1.995   5.819   0.917   0.727   9.458
 20        1.993   5.818   0.904   0.724   9.438
 21        1.995   5.820   0.913   0.728   9.456
 22        1.996   5.821   0.928   0.729   9.473
 23        1.994   5.819   0.915   0.725   9.453
 24        1.997   5.819   0.926   0.743   9.485
 25        1.999   5.812   0.954   0.754   9.519
 26        1.992   5.814   0.907   0.740   9.453
 27        2.022   5.778   0.659   1.155   9.613
 28        1.992   5.817   0.906   0.719   9.435
 29        1.994   5.817   0.907   0.731   9.448
 30        1.993   5.818   0.913   0.727   9.451
 31        2.003   5.786   1.022   0.789   9.600
 32        2.003   5.778   1.036   0.797   9.615
 33        2.008   5.765   1.093   0.799   9.666
 34        2.028   5.731   0.761   1.169   9.689
 35        1.998   5.788   0.990   0.797   9.574
 36        1.600   3.384   0.000   0.000   4.985
 37        1.600   3.384   0.000   0.000   4.985
 38        1.600   3.384   0.000   0.000   4.984
 39        1.600   3.384   0.000   0.000   4.984
 40        1.600   3.384   0.000   0.000   4.985
 41        1.600   3.384   0.000   0.000   4.984
 42        1.600   3.384   0.000   0.000   4.985
 43        1.600   3.384   0.000   0.000   4.984
 44        1.600   3.384   0.000   0.000   4.985
 45        1.600   3.384   0.000   0.000   4.984
 46        1.600   3.384   0.000   0.000   4.984
 47        1.600   3.384   0.000   0.000   4.985
 48        1.597   3.455   0.000   0.000   5.052
 49        1.597   3.457   0.000   0.000   5.054
 50        1.596   3.456   0.000   0.000   5.052
 51        1.597   3.457   0.000   0.000   5.053
 52        1.597   3.456   0.000   0.000   5.052
 53        1.596   3.455   0.000   0.000   5.052
 54        1.596   3.457   0.000   0.000   5.053
 55        1.596   3.456   0.000   0.000   5.052
 56        1.596   3.457   0.000   0.000   5.054
 57        1.597   3.458   0.000   0.000   5.054
 58        1.597   3.458   0.000   0.000   5.055
 59        1.597   3.459   0.000   0.000   5.055
 60        1.598   3.464   0.000   0.000   5.063
 61        1.598   3.462   0.000   0.000   5.060
 62        1.597   3.462   0.000   0.000   5.059
 63        1.598   3.464   0.000   0.000   5.062
 64        1.599   3.468   0.000   0.000   5.067
 65        1.597   3.463   0.000   0.000   5.061
 66        1.597   3.462   0.000   0.000   5.060
 67        1.598   3.467   0.000   0.000   5.065
 68        1.599   3.470   0.000   0.000   5.069
 69        1.598   3.462   0.000   0.000   5.059
 70        1.598   3.467   0.000   0.000   5.065
 71        1.597   3.462   0.000   0.000   5.059
 72        1.598   3.455   0.000   0.000   5.053
 73        1.597   3.453   0.000   0.000   5.050
 74        1.598   3.455   0.000   0.000   5.053
 75        1.598   3.460   0.000   0.000   5.058
 76        1.598   3.452   0.000   0.000   5.049
 77        1.598   3.469   0.000   0.000   5.066
 78        1.597   3.455   0.000   0.000   5.052
 79        1.598   3.461   0.000   0.000   5.059
 80        1.597   3.463   0.000   0.000   5.060
 81        1.597   3.472   0.000   0.000   5.070
 82        1.597   3.459   0.000   0.000   5.056
 83        1.598   3.460   0.000   0.000   5.058
 84        1.599   3.459   0.000   0.000   5.059
 85        1.599   3.478   0.000   0.000   5.077
 86        1.599   3.484   0.000   0.000   5.083
 87        1.592   3.454   0.000   0.000   5.046
 88        1.598   3.472   0.000   0.000   5.069
 89        1.599   3.482   0.000   0.000   5.080
 90        1.599   3.473   0.000   0.000   5.071
 91        1.597   3.462   0.000   0.000   5.059
 92        1.593   3.455   0.000   0.000   5.048
 93        1.597   3.464   0.000   0.000   5.061
 94        1.599   3.474   0.000   0.000   5.073
 95        1.599   3.480   0.000   0.000   5.079
 96        1.603   3.440   0.000   0.000   5.043
 97        1.603   3.423   0.000   0.000   5.026
 98        1.601   3.434   0.000   0.000   5.035
 99        1.603   3.393   0.000   0.000   4.997
100        1.602   3.421   0.000   0.000   5.023
101        1.605   3.426   0.000   0.000   5.031
102        1.606   3.444   0.000   0.000   5.049
103        1.597   3.374   0.000   0.000   4.972
104        1.606   3.369   0.000   0.000   4.975
105        1.594   3.399   0.000   0.000   4.993
106        1.598   3.414   0.000   0.000   5.012
107        0.708   0.691   8.027   0.000   9.426
108        0.638   0.500   8.057   0.000   9.194
------------------------------------------------
tot      184.720 448.575  47.863  26.879 708.037

 


 magnetization (x)
 
# of ion     s       p       d       f       tot
------------------------------------------------
  1       -0.000   0.000   0.000   0.000   0.000
  2        0.000  -0.000  -0.000  -0.000  -0.000
  3        0.000  -0.000  -0.000  -0.000  -0.000
  4        0.000  -0.000  -0.000  -0.000  -0.000
  5        0.000  -0.000   0.000   0.000   0.000
  6       -0.000  -0.000   0.000   0.000   0.000
  7        0.000  -0.000  -0.000  -0.000  -0.000
  8        0.000  -0.000  -0.000   0.000  -0.000
  9       -0.000  -0.000  -0.000  -0.000  -0.000
 10        0.000  -0.000  -0.000  -0.000  -0.000
 11        0.000  -0.000   0.000   0.000   0.000
 12        0.000  -0.000  -0.000   0.000  -0.000
 13       -0.000  -0.000   0.000   0.000   0.000
 14       -0.000  -0.000  -0.000  -0.000  -0.000
 15        0.000  -0.000   0.000   0.000   0.000
 16       -0.000  -0.000   0.000   0.000   0.000
 17       -0.000  -0.000   0.000   0.002   0.002
 18       -0.000  -0.000   0.000   0.000   0.000
 19       -0.000  -0.000   0.000   0.002   0.002
 20       -0.000  -0.000   0.000   0.003   0.003
 21       -0.000  -0.000   0.001   0.006   0.006
 22       -0.000  -0.000  -0.000   0.000   0.000
 23       -0.000  -0.000  -0.000   0.000   0.000
 24       -0.000  -0.000  -0.000   0.000   0.000
 25       -0.000  -0.000   0.000   0.001   0.001
 26        0.000  -0.000   0.000   0.000   0.000
 27       -0.004  -0.006   0.010   0.969   0.969
 28       -0.000  -0.000   0.000   0.003   0.003
 29       -0.000  -0.000   0.000   0.004   0.004
 30       -0.000  -0.000   0.000   0.003   0.003
 31        0.000  -0.000  -0.000   0.000   0.000
 32       -0.000  -0.000   0.000   0.007   0.007
 33       -0.000  -0.000  -0.000   0.001   0.001
 34       -0.003  -0.006   0.016   0.975   0.982
 35       -0.000  -0.000   0.000   0.002   0.003
 36        0.000  -0.000   0.000   0.000  -0.000
 37        0.000  -0.000   0.000   0.000  -0.000
 38        0.000   0.000   0.000   0.000   0.000
 39        0.000  -0.000   0.000   0.000  -0.000
 40       -0.000  -0.000   0.000   0.000  -0.000
 41       -0.000   0.000   0.000   0.000   0.000
 42       -0.000  -0.000   0.000   0.000  -0.000
 43        0.000  -0.000   0.000   0.000  -0.000
 44        0.000  -0.000   0.000   0.000  -0.000
 45       -0.000   0.000   0.000   0.000   0.000
 46       -0.000   0.000   0.000   0.000   0.000
 47       -0.000  -0.000   0.000   0.000  -0.000
 48        0.000  -0.000   0.000   0.000  -0.000
 49        0.000   0.000   0.000   0.000   0.000
 50       -0.000  -0.000   0.000   0.000  -0.000
 51       -0.000  -0.000   0.000   0.000  -0.000
 52        0.000  -0.000   0.000   0.000  -0.000
 53       -0.000   0.000   0.000   0.000   0.000
 54        0.000  -0.000   0.000   0.000  -0.000
 55        0.000  -0.000   0.000   0.000  -0.000
 56       -0.000  -0.000   0.000   0.000  -0.000
 57       -0.000  -0.000   0.000   0.000  -0.000
 58       -0.000  -0.000   0.000   0.000  -0.000
 59       -0.000  -0.000   0.000   0.000  -0.000
 60       -0.000  -0.000   0.000   0.000  -0.000
 61       -0.000  -0.000   0.000   0.000  -0.000
 62       -0.000  -0.000   0.000   0.000  -0.000
 63       -0.000  -0.000   0.000   0.000  -0.000
 64       -0.000  -0.000   0.000   0.000  -0.000
 65        0.000  -0.000   0.000   0.000  -0.000
 66       -0.000  -0.000   0.000   0.000  -0.000
 67       -0.000  -0.000   0.000   0.000  -0.000
 68       -0.000  -0.000   0.000   0.000  -0.000
 69       -0.000  -0.000   0.000   0.000  -0.000
 70       -0.000  -0.000   0.000   0.000  -0.000
 71       -0.000  -0.000   0.000   0.000  -0.000
 72       -0.000  -0.000   0.000   0.000  -0.000
 73       -0.000  -0.000   0.000   0.000  -0.000
 74        0.000  -0.000   0.000   0.000  -0.000
 75       -0.000  -0.000   0.000   0.000  -0.000
 76       -0.000  -0.000   0.000   0.000  -0.000
 77       -0.000  -0.000   0.000   0.000  -0.000
 78       -0.000  -0.000   0.000   0.000  -0.000
 79       -0.000  -0.000   0.000   0.000  -0.000
 80       -0.000  -0.002   0.000   0.000  -0.003
 81       -0.000  -0.004   0.000   0.000  -0.004
 82       -0.000  -0.000   0.000   0.000  -0.000
 83       -0.000  -0.000   0.000   0.000  -0.000
 84       -0.000  -0.000   0.000   0.000  -0.000
 85       -0.000  -0.000   0.000   0.000  -0.000
 86       -0.000  -0.002   0.000   0.000  -0.002
 87       -0.000  -0.003   0.000   0.000  -0.003
 88       -0.000  -0.000   0.000   0.000  -0.000
 89       -0.000  -0.003   0.000   0.000  -0.003
 90       -0.000  -0.000   0.000   0.000  -0.000
 91       -0.000  -0.000   0.000   0.000  -0.000
 92       -0.000  -0.008   0.000   0.000  -0.008
 93       -0.000  -0.000   0.000   0.000  -0.000
 94       -0.000  -0.005   0.000   0.000  -0.006
 95       -0.000  -0.000   0.000   0.000  -0.000
 96       -0.000  -0.009   0.000   0.000  -0.009
 97       -0.000  -0.000   0.000   0.000  -0.000
 98       -0.000  -0.004   0.000   0.000  -0.005
 99       -0.000  -0.000   0.000   0.000  -0.000
100       -0.000  -0.000   0.000   0.000  -0.000
101       -0.000  -0.000   0.000   0.000  -0.000
102       -0.000  -0.000   0.000   0.000  -0.000
103       -0.000  -0.000   0.000   0.000  -0.000
104       -0.000  -0.000   0.000   0.000  -0.000
105       -0.000  -0.004   0.000   0.000  -0.004
106       -0.000  -0.003   0.000   0.000  -0.003
107       -0.000  -0.000  -0.000   0.000  -0.001
108       -0.000  -0.000   0.000   0.000   0.000
------------------------------------------------
tot       -0.011  -0.066   0.027   1.980   1.930

 

 total amount of memory used by VASP on root node   155756. kBytes
========================================================================

   base      :      30000. kBytes
   nonlr-proj:      13575. kBytes
   fftplans  :      48666. kBytes
   grid      :      39988. kBytes
   one-center:        884. kBytes
   wavefun   :      22643. kBytes
 
  
  
 General timing and accounting informations for this job:
 ========================================================
  
                  Total CPU time used (sec):      169.924
                            User time (sec):      160.466
                          System time (sec):        9.459
                         Elapsed time (sec):      175.587
  
                   Maximum memory used (kb):      328452.
                   Average memory used (kb):           0.
  
                          Minor page faults:        74952
                          Major page faults:            8
                 Voluntary context switches:         5386
