       N       E                     dE             d eps       ncg     rms          rms(c)
DAV:   1    -0.894621167742E+03   -0.89462E+03   -0.27793E-04  2496   0.341E-02    0.606E-02
RMM:   2    -0.894621151377E+03    0.16365E-04   -0.14879E-04  1512   0.185E-02
   1 F= -.91563697E+03 E0= -.91563697E+03  d E =-.915637E+03  mag=    -0.0000
       N       E                     dE             d eps       ncg     rms          rms(c)
DAV:   1    -0.894623653496E+03   -0.24858E-02   -0.14576E-01  2464   0.373E-01    0.278E-01
RMM:   2    -0.894623757813E+03   -0.10432E-03   -0.46806E-03  2504   0.840E-02    0.109E-01
RMM:   3    -0.894623790612E+03   -0.32800E-04   -0.35043E-04  1476   0.361E-02
   2 F= -.91563970E+03 E0= -.91563970E+03  d E =-.272691E-02  mag=    -0.0000
       N       E                     dE             d eps       ncg     rms          rms(c)
DAV:   1    -0.894622898081E+03    0.85973E-03   -0.15319E-02  2896   0.123E-01    0.801E-02
RMM:   2    -0.894623030513E+03   -0.13243E-03   -0.32373E-04  1401   0.261E-02    0.256E-02
RMM:   3    -0.894623059366E+03   -0.28853E-04   -0.98788E-05  1233   0.181E-02
   3 F= -.91563896E+03 E0= -.91563896E+03  d E =0.738467E-03  mag=    -0.0000
       N       E                     dE             d eps       ncg     rms          rms(c)
DAV:   1    -0.894622600477E+03    0.43004E-03   -0.32752E-02  2432   0.207E-01    0.840E-02
RMM:   2    -0.894622724073E+03   -0.12360E-03   -0.17499E-03  2498   0.864E-02    0.488E-02
RMM:   3    -0.894622756631E+03   -0.32558E-04   -0.27971E-04  1482   0.300E-02
   4 F= -.91563854E+03 E0= -.91563854E+03  d E =0.421980E-03  mag=    -0.0000
       N       E                     dE             d eps       ncg     rms          rms(c)
DAV:   1    -0.894622605672E+03    0.11840E-03   -0.22567E-01  2432   0.538E-01    0.402E-01
RMM:   2    -0.894623246867E+03   -0.64120E-03   -0.11450E-02  2957   0.193E-01    0.192E-01
RMM:   3    -0.894623412022E+03   -0.16515E-03   -0.19092E-03  2678   0.638E-02    0.183E-01
RMM:   4    -0.894623508587E+03   -0.96565E-04   -0.74441E-04  1882   0.378E-02
   5 F= -.91563911E+03 E0= -.91563911E+03  d E =-.569993E-03  mag=    -0.0000
       N       E                     dE             d eps       ncg     rms          rms(c)
DAV:   1    -0.894623067561E+03    0.34446E-03   -0.46310E-01  2432   0.747E-01    0.460E-01
RMM:   2    -0.894624190163E+03   -0.11226E-02   -0.17370E-02  2954   0.229E-01    0.196E-01
RMM:   3    -0.894624362322E+03   -0.17216E-03   -0.21776E-03  2530   0.714E-02    0.185E-01
RMM:   4    -0.894624470147E+03   -0.10782E-03   -0.80550E-04  1804   0.403E-02    0.112E-01
RMM:   5    -0.894624619028E+03   -0.14888E-03   -0.37205E-04  1483   0.392E-02    0.502E-02
RMM:   6    -0.894624682266E+03   -0.63238E-04   -0.13307E-04  1277   0.272E-02
   6 F= -.91564065E+03 E0= -.91564065E+03  d E =-.153563E-02  mag=    -0.0000
       N       E                     dE             d eps       ncg     rms          rms(c)
DAV:   1    -0.894624122719E+03    0.49631E-03   -0.74374E-01  2432   0.936E-01    0.559E-01
RMM:   2    -0.894625785647E+03   -0.16629E-02   -0.26693E-02  2965   0.279E-01    0.254E-01
RMM:   3    -0.894626171804E+03   -0.38616E-03   -0.42171E-03  3130   0.915E-02    0.243E-01
RMM:   4    -0.894626395818E+03   -0.22401E-03   -0.13992E-03  2233   0.456E-02    0.143E-01
RMM:   5    -0.894626632858E+03   -0.23704E-03   -0.61399E-04  1730   0.419E-02    0.706E-02
RMM:   6    -0.894626715780E+03   -0.82922E-04   -0.21393E-04  1537   0.332E-02
   7 F= -.91564315E+03 E0= -.91564315E+03  d E =-.250574E-02  mag=    -0.0000
       N       E                     dE             d eps       ncg     rms          rms(c)
DAV:   1    -0.894628630473E+03   -0.19976E-02   -0.27538E-01  2496   0.529E-01    0.179E-01
RMM:   2    -0.894629029465E+03   -0.39899E-03   -0.68980E-03  2937   0.121E-01    0.988E-02
RMM:   3    -0.894629133879E+03   -0.10441E-03   -0.63749E-04  1759   0.406E-02    0.805E-02
RMM:   4    -0.894629322170E+03   -0.18829E-03   -0.41650E-04  1623   0.374E-02    0.411E-02
RMM:   5    -0.894629430716E+03   -0.10855E-03   -0.28966E-04  1486   0.298E-02    0.191E-02
RMM:   6    -0.894629453786E+03   -0.23070E-04   -0.10561E-04  1419   0.285E-02
   8 F= -.91564613E+03 E0= -.91564613E+03  d E =-.297809E-02  mag=    -0.0000
       N       E                     dE             d eps       ncg     rms          rms(c)
DAV:   1    -0.894630972030E+03   -0.15413E-02   -0.11511E-01  2720   0.328E-01    0.104E-01
RMM:   2    -0.894631106211E+03   -0.13418E-03   -0.25311E-03  2225   0.672E-02    0.581E-02
RMM:   3    -0.894631162154E+03   -0.55943E-04   -0.28512E-04  1441   0.318E-02
   9 F= -.91564798E+03 E0= -.91564798E+03  d E =-.184569E-02  mag=    -0.0000
       N       E                     dE             d eps       ncg     rms          rms(c)
DAV:   1    -0.894632018291E+03   -0.91208E-03   -0.60639E+00  2432   0.233E+00    0.594E-01
RMM:   2    -0.894640391096E+03   -0.83728E-02   -0.11483E-01  3061   0.399E-01    0.354E-01
RMM:   3    -0.894641597614E+03   -0.12065E-02   -0.87145E-03  2540   0.141E-01    0.245E-01
RMM:   4    -0.894643229861E+03   -0.16322E-02   -0.39583E-03  2317   0.558E-02    0.130E-01
RMM:   5    -0.894644113789E+03   -0.88393E-03   -0.79018E-04  1802   0.495E-02    0.410E-02
RMM:   6    -0.894644206103E+03   -0.92315E-04   -0.33363E-04  1559   0.309E-02
  10 F= -.91565930E+03 E0= -.91565930E+03  d E =-.113243E-01  mag=    -0.0000
       N       E                     dE             d eps       ncg     rms          rms(c)
DAV:   1    -0.894642708185E+03    0.14056E-02   -0.81221E-02  2784   0.281E-01    0.106E-01
RMM:   2    -0.894642799709E+03   -0.91524E-04   -0.17631E-03  2012   0.570E-02    0.501E-02
RMM:   3    -0.894642826247E+03   -0.26538E-04   -0.18124E-04  1367   0.294E-02
  11 F= -.91565790E+03 E0= -.91565790E+03  d E =0.140089E-02  mag=    -0.0000
       N       E                     dE             d eps       ncg     rms          rms(c)
DAV:   1    -0.894642102895E+03    0.69681E-03   -0.23222E-02  2688   0.154E-01    0.809E-02
RMM:   2    -0.894642114942E+03   -0.12047E-04   -0.54378E-04  1525   0.351E-02
  12 F= -.91565711E+03 E0= -.91565711E+03  d E =0.789181E-03  mag=    -0.0000
       N       E                     dE             d eps       ncg     rms          rms(c)
DAV:   1    -0.894642868461E+03   -0.76557E-03   -0.21276E-02  2576   0.142E-01    0.413E-02
RMM:   2    -0.894642959115E+03   -0.90654E-04   -0.36955E-04  1407   0.292E-02
  13 F= -.91565800E+03 E0= -.91565800E+03  d E =-.889298E-03  mag=    -0.0000
       N       E                     dE             d eps       ncg     rms          rms(c)
DAV:   1    -0.894634481792E+03    0.83867E-02   -0.15349E+00  2432   0.118E+00    0.583E-01
RMM:   2    -0.894636538983E+03   -0.20572E-02   -0.38031E-02  3045   0.225E-01    0.241E-01
RMM:   3    -0.894636710726E+03   -0.17174E-03   -0.25027E-03  2065   0.794E-02    0.236E-01
RMM:   4    -0.894637132860E+03   -0.42213E-03   -0.10806E-03  1939   0.387E-02    0.163E-01
RMM:   5    -0.894637544891E+03   -0.41203E-03   -0.57352E-04  1677   0.380E-02    0.824E-02
RMM:   6    -0.894637671764E+03   -0.12687E-03   -0.14933E-04  1505   0.270E-02    0.472E-02
RMM:   7    -0.894637690729E+03   -0.18965E-04   -0.96268E-05  1460   0.200E-02
  14 F= -.91565246E+03 E0= -.91565246E+03  d E =0.554415E-02  mag=    -0.0000
       N       E                     dE             d eps       ncg     rms          rms(c)
DAV:   1    -0.894641044469E+03   -0.33727E-02   -0.25871E+00  2432   0.151E+00    0.377E-01
RMM:   2    -0.894644393108E+03   -0.33486E-02   -0.47986E-02  2791   0.256E-01    0.220E-01
RMM:   3    -0.894644929324E+03   -0.53622E-03   -0.38959E-03  2150   0.985E-02    0.153E-01
RMM:   4    -0.894645591900E+03   -0.66258E-03   -0.14894E-03  1863   0.393E-02    0.905E-02
RMM:   5    -0.894646094321E+03   -0.50242E-03   -0.42021E-04  1578   0.356E-02    0.254E-02
RMM:   6    -0.894646155591E+03   -0.61269E-04   -0.17730E-04  1404   0.233E-02
  15 F= -.91566154E+03 E0= -.91566154E+03  d E =-.908292E-02  mag=    -0.0000
       N       E                     dE             d eps       ncg     rms          rms(c)
DAV:   1    -0.894647355496E+03   -0.12612E-02   -0.29291E+00  2432   0.162E+00    0.738E-01
RMM:   2    -0.894651118130E+03   -0.37626E-02   -0.65485E-02  2957   0.291E-01    0.318E-01
RMM:   3    -0.894651495881E+03   -0.37775E-03   -0.48514E-03  2290   0.111E-01    0.307E-01
RMM:   4    -0.894652331933E+03   -0.83605E-03   -0.23816E-03  2168   0.466E-02    0.201E-01
RMM:   5    -0.894653012525E+03   -0.68059E-03   -0.89186E-04  1825   0.439E-02    0.996E-02
RMM:   6    -0.894653196830E+03   -0.18430E-03   -0.22963E-04  1524   0.299E-02    0.543E-02
RMM:   7    -0.894653204744E+03   -0.79139E-05   -0.11348E-04  1461   0.215E-02
  16 F= -.91566913E+03 E0= -.91566913E+03  d E =-.759099E-02  mag=    -0.0000
       N       E                     dE             d eps       ncg     rms          rms(c)
DAV:   1    -0.894655529350E+03   -0.23325E-02   -0.24886E+00  2432   0.149E+00    0.409E-01
RMM:   2    -0.894658589242E+03   -0.30599E-02   -0.47500E-02  2853   0.255E-01    0.227E-01
RMM:   3    -0.894659084077E+03   -0.49483E-03   -0.39233E-03  2202   0.961E-02    0.174E-01
RMM:   4    -0.894659812667E+03   -0.72859E-03   -0.15646E-03  1970   0.389E-02    0.109E-01
RMM:   5    -0.894660471077E+03   -0.65841E-03   -0.54115E-04  1643   0.370E-02    0.339E-02
RMM:   6    -0.894660550851E+03   -0.79773E-04   -0.15096E-04  1486   0.266E-02
  17 F= -.91567716E+03 E0= -.91567716E+03  d E =-.802800E-02  mag=    -0.0000
       N       E                     dE             d eps       ncg     rms          rms(c)
DAV:   1    -0.894652823216E+03    0.76479E-02   -0.11072E+01  2432   0.314E+00    0.789E-01
RMM:   2    -0.894668159473E+03   -0.15336E-01   -0.20337E-01  2900   0.528E-01    0.456E-01
RMM:   3    -0.894670548350E+03   -0.23889E-02   -0.18415E-02  2690   0.206E-01    0.322E-01
RMM:   4    -0.894673006974E+03   -0.24586E-02   -0.65860E-03  2524   0.699E-02    0.192E-01
RMM:   5    -0.894674640097E+03   -0.16331E-02   -0.14415E-03  2016   0.532E-02    0.526E-02
RMM:   6    -0.894674797945E+03   -0.15785E-03   -0.41198E-04  1596   0.325E-02    0.335E-02
RMM:   7    -0.894674834525E+03   -0.36580E-04   -0.17200E-04  1507   0.235E-02
  18 F= -.91569284E+03 E0= -.91569284E+03  d E =-.156861E-01  mag=    -0.0000
       N       E                     dE             d eps       ncg     rms          rms(c)
DAV:   1    -0.894632203569E+03    0.42594E-01   -0.31046E+01  2432   0.525E+00    0.134E+00
RMM:   2    -0.894679834428E+03   -0.47631E-01   -0.59474E-01  2980   0.901E-01    0.760E-01
RMM:   3    -0.894685284017E+03   -0.54496E-02   -0.48562E-02  2865   0.324E-01    0.547E-01
RMM:   4    -0.894691223392E+03   -0.59394E-02   -0.16347E-02  2942   0.107E-01    0.324E-01
RMM:   5    -0.894694834628E+03   -0.36112E-02   -0.37093E-03  2575   0.750E-02    0.949E-02
RMM:   6    -0.894695270154E+03   -0.43553E-03   -0.11100E-03  1925   0.406E-02    0.595E-02
RMM:   7    -0.894695318312E+03   -0.48159E-04   -0.36447E-04  1636   0.318E-02
  19 F= -.91571581E+03 E0= -.91571580E+03  d E =-.229666E-01  mag=    -0.0001
       N       E                     dE             d eps       ncg     rms          rms(c)
DAV:   1    -0.894673206378E+03    0.22064E-01   -0.68887E+00  2432   0.247E+00    0.628E-01
RMM:   2    -0.894683054981E+03   -0.98486E-02   -0.12899E-01  2963   0.416E-01    0.366E-01
RMM:   3    -0.894684184536E+03   -0.11296E-02   -0.10452E-02  2380   0.155E-01    0.268E-01
RMM:   4    -0.894685340550E+03   -0.11560E-02   -0.36228E-03  2210   0.531E-02    0.171E-01
RMM:   5    -0.894686474930E+03   -0.11344E-02   -0.10341E-03  1843   0.469E-02    0.552E-02
RMM:   6    -0.894686653254E+03   -0.17832E-03   -0.26280E-04  1512   0.300E-02    0.346E-02
RMM:   7    -0.894686686554E+03   -0.33300E-04   -0.10755E-04  1376   0.221E-02
  20 F= -.91570600E+03 E0= -.91570600E+03  d E =0.980594E-02  mag=    -0.0001
       N       E                     dE             d eps       ncg     rms          rms(c)
DAV:   1    -0.894662862694E+03    0.23791E-01   -0.19661E+01  2432   0.417E+00    0.107E+00
RMM:   2    -0.894691426114E+03   -0.28563E-01   -0.36556E-01  2905   0.709E-01    0.606E-01
RMM:   3    -0.894695059910E+03   -0.36338E-02   -0.32222E-02  2719   0.276E-01    0.440E-01
RMM:   4    -0.894698790110E+03   -0.37302E-02   -0.10889E-02  2623   0.879E-02    0.264E-01
RMM:   5    -0.894701376994E+03   -0.25869E-02   -0.24831E-03  2222   0.659E-02    0.755E-02
RMM:   6    -0.894701641087E+03   -0.26409E-03   -0.64031E-04  1697   0.370E-02    0.499E-02
RMM:   7    -0.894701683802E+03   -0.42715E-04   -0.21627E-04  1537   0.271E-02
  21 F= -.91572291E+03 E0= -.91572290E+03  d E =-.169099E-01  mag=    -0.0002
       N       E                     dE             d eps       ncg     rms          rms(c)
DAV:   1    -0.894681178824E+03    0.20462E-01   -0.65900E+00  2432   0.242E+00    0.606E-01
RMM:   2    -0.894690563357E+03   -0.93845E-02   -0.12192E-01  2846   0.400E-01    0.357E-01
RMM:   3    -0.894691668260E+03   -0.11049E-02   -0.99944E-03  2374   0.155E-01    0.255E-01
RMM:   4    -0.894692753004E+03   -0.10847E-02   -0.33309E-03  2198   0.534E-02    0.163E-01
RMM:   5    -0.894693824662E+03   -0.10717E-02   -0.97065E-04  1818   0.462E-02    0.474E-02
RMM:   6    -0.894693981559E+03   -0.15690E-03   -0.26565E-04  1452   0.286E-02    0.302E-02
RMM:   7    -0.894694008407E+03   -0.26848E-04   -0.10007E-04  1335   0.215E-02
  22 F= -.91571418E+03 E0= -.91571417E+03  d E =0.873870E-02  mag=    -0.0001
       N       E                     dE             d eps       ncg     rms          rms(c)
DAV:   1    -0.894672140763E+03    0.21841E-01   -0.17976E+01  2432   0.398E+00    0.102E+00
RMM:   2    -0.894697887003E+03   -0.25746E-01   -0.32986E-01  2851   0.669E-01    0.579E-01
RMM:   3    -0.894701243961E+03   -0.33570E-02   -0.29126E-02  2659   0.271E-01    0.417E-01
RMM:   4    -0.894704773391E+03   -0.35294E-02   -0.10888E-02  2578   0.862E-02    0.250E-01
RMM:   5    -0.894707081051E+03   -0.23077E-02   -0.22340E-03  2169   0.637E-02    0.723E-02
RMM:   6    -0.894707344309E+03   -0.26326E-03   -0.61189E-04  1692   0.353E-02    0.470E-02
RMM:   7    -0.894707379222E+03   -0.34913E-04   -0.18803E-04  1521   0.258E-02
  23 F= -.91572929E+03 E0= -.91572927E+03  d E =-.151111E-01  mag=    -0.0003
       N       E                     dE             d eps       ncg     rms          rms(c)
DAV:   1    -0.894633905542E+03    0.73439E-01   -0.28212E+01  2432   0.500E+00    0.128E+00
RMM:   2    -0.894677290847E+03   -0.43385E-01   -0.54847E-01  2893   0.838E-01    0.756E-01
RMM:   3    -0.894681627595E+03   -0.43367E-02   -0.44250E-02  2670   0.326E-01    0.552E-01
RMM:   4    -0.894686448359E+03   -0.48208E-02   -0.13143E-02  2641   0.955E-02    0.367E-01
RMM:   5    -0.894690137909E+03   -0.36895E-02   -0.39181E-03  2367   0.787E-02    0.119E-01
RMM:   6    -0.894690854423E+03   -0.71651E-03   -0.10252E-03  1842   0.405E-02    0.682E-02
RMM:   7    -0.894690923056E+03   -0.68633E-04   -0.27464E-04  1581   0.297E-02
  24 F= -.91571071E+03 E0= -.91571071E+03  d E =0.185731E-01  mag=    -0.0001
       N       E                     dE             d eps       ncg     rms          rms(c)
DAV:   1    -0.894674780168E+03    0.16074E-01   -0.15438E+01  2432   0.370E+00    0.973E-01
RMM:   2    -0.894697101694E+03   -0.22322E-01   -0.28739E-01  2885   0.623E-01    0.539E-01
RMM:   3    -0.894699826770E+03   -0.27251E-02   -0.24508E-02  2637   0.242E-01    0.402E-01
RMM:   4    -0.894702583112E+03   -0.27563E-02   -0.77340E-03  2548   0.815E-02    0.239E-01
RMM:   5    -0.894704722209E+03   -0.21391E-02   -0.19236E-03  2163   0.603E-02    0.736E-02
RMM:   6    -0.894704963550E+03   -0.24134E-03   -0.45136E-04  1682   0.335E-02    0.510E-02
RMM:   7    -0.894704999403E+03   -0.35853E-04   -0.15097E-04  1444   0.242E-02
  25 F= -.91572636E+03 E0= -.91572635E+03  d E =-.156508E-01  mag=    -0.0002
       N       E                     dE             d eps       ncg     rms          rms(c)
DAV:   1    -0.894607839327E+03    0.97124E-01   -0.36606E+01  2432   0.569E+00    0.152E+00
RMM:   2    -0.894665779654E+03   -0.57940E-01   -0.73233E-01  2915   0.969E-01    0.871E-01
RMM:   3    -0.894670829884E+03   -0.50502E-02   -0.58798E-02  2707   0.378E-01    0.645E-01
RMM:   4    -0.894677207749E+03   -0.63779E-02   -0.19655E-02  2710   0.112E-01    0.438E-01
RMM:   5    -0.894682048704E+03   -0.48410E-02   -0.53772E-03  2489   0.883E-02    0.159E-01
RMM:   6    -0.894683146145E+03   -0.10974E-02   -0.14749E-03  1956   0.449E-02    0.901E-02
RMM:   7    -0.894683247528E+03   -0.10138E-03   -0.38964E-04  1615   0.328E-02    0.504E-02
RMM:   8    -0.894683298144E+03   -0.50616E-04   -0.20788E-04  1545   0.240E-02
  26 F= -.91570230E+03 E0= -.91570230E+03  d E =0.240617E-01  mag=    -0.0001
       N       E                     dE             d eps       ncg     rms          rms(c)
DAV:   1    -0.894685815096E+03   -0.25676E-02   -0.23813E-01  2528   0.473E-01    0.290E-01
RMM:   2    -0.894686042015E+03   -0.22692E-03   -0.64173E-03  2575   0.975E-02    0.118E-01
RMM:   3    -0.894686072483E+03   -0.30468E-04   -0.43524E-04  1580   0.386E-02
  27 F= -.91570522E+03 E0= -.91570522E+03  d E =-.292234E-02  mag=    -0.0001
       N       E                     dE             d eps       ncg     rms          rms(c)
DAV:   1    -0.894683179165E+03    0.28629E-02   -0.19479E-01  2608   0.418E-01    0.188E-01
RMM:   2    -0.894683610320E+03   -0.43116E-03   -0.40605E-03  2223   0.723E-02    0.562E-02
RMM:   3    -0.894683647819E+03   -0.37500E-04   -0.36581E-04  1512   0.365E-02
  28 F= -.91570271E+03 E0= -.91570270E+03  d E =0.251707E-02  mag=    -0.0001
       N       E                     dE             d eps       ncg     rms          rms(c)
DAV:   1    -0.894685737905E+03   -0.21276E-02   -0.37774E-01  2448   0.616E-01    0.210E-01
RMM:   2    -0.894686433297E+03   -0.69539E-03   -0.93041E-03  2919   0.137E-01    0.880E-02
RMM:   3    -0.894686492477E+03   -0.59180E-04   -0.68478E-04  1625   0.468E-02
  29 F= -.91570573E+03 E0= -.91570573E+03  d E =-.302562E-02  mag=    -0.0001
       N       E                     dE             d eps       ncg     rms          rms(c)
DAV:   1    -0.894685156097E+03    0.12772E-02   -0.52160E-02  2672   0.222E-01    0.961E-02
RMM:   2    -0.894685363227E+03   -0.20713E-03   -0.10393E-03  1687   0.404E-02    0.285E-02
RMM:   3    -0.894685387791E+03   -0.24565E-04   -0.14843E-04  1268   0.262E-02
  30 F= -.91570456E+03 E0= -.91570456E+03  d E =0.117081E-02  mag=    -0.0001
       N       E                     dE             d eps       ncg     rms          rms(c)
DAV:   1    -0.894684505467E+03    0.85776E-03   -0.56243E-02  2496   0.262E-01    0.659E-02
RMM:   2    -0.894684621504E+03   -0.11604E-03   -0.18338E-03  2426   0.801E-02    0.443E-02
RMM:   3    -0.894684655544E+03   -0.34040E-04   -0.25654E-04  1378   0.297E-02
  31 F= -.91570374E+03 E0= -.91570374E+03  d E =0.819497E-03  mag=    -0.0001
       N       E                     dE             d eps       ncg     rms          rms(c)
DAV:   1    -0.894675039873E+03    0.95816E-02   -0.14850E+00  2464   0.130E+00    0.353E-01
RMM:   2    -0.894677990722E+03   -0.29508E-02   -0.42021E-02  2976   0.347E-01    0.226E-01
RMM:   3    -0.894678644182E+03   -0.65346E-03   -0.66950E-03  3212   0.111E-01    0.181E-01
RMM:   4    -0.894679085135E+03   -0.44095E-03   -0.16337E-03  2382   0.457E-02    0.130E-01
RMM:   5    -0.894679600823E+03   -0.51569E-03   -0.78619E-04  1920   0.400E-02    0.501E-02
RMM:   6    -0.894679706724E+03   -0.10590E-03   -0.22454E-04  1536   0.350E-02    0.295E-02
RMM:   7    -0.894679749224E+03   -0.42499E-04   -0.14768E-04  1479   0.273E-02
  32 F= -.91569851E+03 E0= -.91569851E+03  d E =0.523045E-02  mag=    -0.0000
       N       E                     dE             d eps       ncg     rms          rms(c)
DAV:   1    -0.894677855816E+03    0.18509E-02   -0.22615E-01  2464   0.515E-01    0.190E-01
RMM:   2    -0.894678371603E+03   -0.51579E-03   -0.76069E-03  2884   0.154E-01    0.107E-01
RMM:   3    -0.894678538645E+03   -0.16704E-03   -0.14610E-03  2456   0.512E-02    0.856E-02
RMM:   4    -0.894678696093E+03   -0.15745E-03   -0.56907E-04  1808   0.361E-02    0.436E-02
RMM:   5    -0.894678778717E+03   -0.82624E-04   -0.24338E-04  1498   0.327E-02
  33 F= -.91569740E+03 E0= -.91569739E+03  d E =0.111446E-02  mag=    -0.0001
       N       E                     dE             d eps       ncg     rms          rms(c)
DAV:   1    -0.894654401232E+03    0.24295E-01   -0.10530E+01  2464   0.345E+00    0.101E+00
RMM:   2    -0.894678559826E+03   -0.24159E-01   -0.29274E-01  2953   0.920E-01    0.588E-01
RMM:   3    -0.894682940971E+03   -0.43811E-02   -0.43366E-02  3313   0.291E-01    0.444E-01
RMM:   4    -0.894685572750E+03   -0.26318E-02   -0.11778E-02  3344   0.121E-01    0.215E-01
RMM:   5    -0.894686764881E+03   -0.11921E-02   -0.40135E-03  3108   0.656E-02    0.904E-02
RMM:   6    -0.894686997263E+03   -0.23238E-03   -0.16241E-03  2478   0.468E-02    0.690E-02
RMM:   7    -0.894687077782E+03   -0.80519E-04   -0.90939E-04  2023   0.366E-02
  34 F= -.91570670E+03 E0= -.91570670E+03  d E =-.930120E-02  mag=    -0.0000
       N       E                     dE             d eps       ncg     rms          rms(c)
DAV:   1    -0.894683143929E+03    0.38533E-02   -0.71726E-01  2464   0.938E-01    0.281E-01
RMM:   2    -0.894685006226E+03   -0.18623E-02   -0.23127E-02  2868   0.281E-01    0.176E-01
RMM:   3    -0.894685405882E+03   -0.39966E-03   -0.38345E-03  3032   0.868E-02    0.129E-01
RMM:   4    -0.894685613783E+03   -0.20790E-03   -0.55357E-04  1779   0.392E-02    0.714E-02
RMM:   5    -0.894685746400E+03   -0.13262E-03   -0.28111E-04  1494   0.350E-02    0.284E-02
RMM:   6    -0.894685774169E+03   -0.27770E-04   -0.89711E-05  1332   0.261E-02
  35 F= -.91570517E+03 E0= -.91570517E+03  d E =0.153127E-02  mag=    -0.0000
       N       E                     dE             d eps       ncg     rms          rms(c)
DAV:   1    -0.894687101316E+03   -0.13549E-02   -0.19634E-01  2496   0.434E-01    0.129E-01
RMM:   2    -0.894687317012E+03   -0.21570E-03   -0.42472E-03  2432   0.860E-02    0.671E-02
RMM:   3    -0.894687351304E+03   -0.34291E-04   -0.30412E-04  1347   0.347E-02
  36 F= -.91570690E+03 E0= -.91570689E+03  d E =-.172959E-02  mag=    -0.0000
       N       E                     dE             d eps       ncg     rms          rms(c)
DAV:   1    -0.894687337525E+03   -0.20513E-04   -0.11351E-03  3232   0.439E-02    0.347E-02
RMM:   2    -0.894687376311E+03   -0.38786E-04   -0.52058E-05  1262   0.165E-02
  37 F= -.91570692E+03 E0= -.91570692E+03  d E =-.257931E-04  mag=    -0.0000
       N       E                     dE             d eps       ncg     rms          rms(c)
DAV:   1    -0.894685125532E+03    0.22120E-02   -0.32305E-01  2448   0.614E-01    0.181E-01
RMM:   2    -0.894685861794E+03   -0.73626E-03   -0.94987E-03  2808   0.177E-01    0.102E-01
RMM:   3    -0.894686018577E+03   -0.15678E-03   -0.14949E-03  2294   0.579E-02    0.760E-02
RMM:   4    -0.894686156416E+03   -0.13784E-03   -0.38442E-04  1557   0.376E-02    0.412E-02
RMM:   5    -0.894686233328E+03   -0.76912E-04   -0.20749E-04  1306   0.322E-02
  38 F= -.91570558E+03 E0= -.91570558E+03  d E =0.134378E-02  mag=    -0.0000
       N       E                     dE             d eps       ncg     rms          rms(c)
DAV:   1    -0.894687655671E+03   -0.14993E-02   -0.52604E-01  2432   0.730E-01    0.184E-01
RMM:   2    -0.894688409515E+03   -0.75384E-03   -0.12027E-02  2921   0.159E-01    0.108E-01
RMM:   3    -0.894688510278E+03   -0.10076E-03   -0.81532E-04  1688   0.500E-02    0.808E-02
RMM:   4    -0.894688671703E+03   -0.16143E-03   -0.33824E-04  1344   0.323E-02    0.536E-02
RMM:   5    -0.894688844647E+03   -0.17294E-03   -0.21610E-04  1258   0.299E-02    0.223E-02
RMM:   6    -0.894688883882E+03   -0.39234E-04   -0.93488E-05  1222   0.252E-02
  39 F= -.91570849E+03 E0= -.91570849E+03  d E =-.291383E-02  mag=    -0.0000
       N       E                     dE             d eps       ncg     rms          rms(c)
DAV:   1    -0.894686172351E+03    0.26723E-02   -0.22300E-01  2432   0.518E-01    0.458E-01
RMM:   2    -0.894686712615E+03   -0.54026E-03   -0.11702E-02  2951   0.186E-01    0.182E-01
RMM:   3    -0.894686850887E+03   -0.13827E-03   -0.16141E-03  2376   0.626E-02    0.183E-01
RMM:   4    -0.894686921850E+03   -0.70963E-04   -0.59653E-04  1807   0.383E-02
  40 F= -.91570656E+03 E0= -.91570655E+03  d E =0.193773E-02  mag=    -0.0000
       N       E                     dE             d eps       ncg     rms          rms(c)
DAV:   1    -0.894685075216E+03    0.17757E-02   -0.22558E-01  2480   0.506E-01    0.127E-01
RMM:   2    -0.894685468766E+03   -0.39355E-03   -0.62301E-03  2778   0.128E-01    0.791E-02
RMM:   3    -0.894685545735E+03   -0.76969E-04   -0.48291E-04  1575   0.397E-02
  41 F= -.91570507E+03 E0= -.91570507E+03  d E =0.148238E-02  mag=    -0.0000
       N       E                     dE             d eps       ncg     rms          rms(c)
DAV:   1    -0.894685511187E+03   -0.42421E-04   -0.21098E-03  2944   0.581E-02    0.451E-02
RMM:   2    -0.894685531982E+03   -0.20795E-04   -0.88127E-05  1294   0.177E-02
  42 F= -.91570504E+03 E0= -.91570504E+03  d E =0.346733E-04  mag=    -0.0000
       N       E                     dE             d eps       ncg     rms          rms(c)
DAV:   1    -0.894686370765E+03   -0.85958E-03   -0.50045E-02  2512   0.233E-01    0.712E-02
RMM:   2    -0.894686496203E+03   -0.12544E-03   -0.12088E-03  1914   0.590E-02    0.349E-02
RMM:   3    -0.894686517876E+03   -0.21673E-04   -0.14901E-04  1252   0.279E-02
  43 F= -.91570612E+03 E0= -.91570612E+03  d E =-.107826E-02  mag=    -0.0000
       N       E                     dE             d eps       ncg     rms          rms(c)
DAV:   1    -0.894687572393E+03   -0.10762E-02   -0.11594E-01  2496   0.363E-01    0.170E-01
RMM:   2    -0.894687700908E+03   -0.12851E-03   -0.35667E-03  2665   0.988E-02    0.809E-02
RMM:   3    -0.894687772021E+03   -0.71114E-04   -0.39532E-04  1550   0.360E-02
  44 F= -.91570749E+03 E0= -.91570748E+03  d E =-.136830E-02  mag=    -0.0000
       N       E                     dE             d eps       ncg     rms          rms(c)
DAV:   1    -0.894689291543E+03   -0.15906E-02   -0.19884E-01  2448   0.469E-01    0.264E-01
RMM:   2    -0.894689509548E+03   -0.21801E-03   -0.66546E-03  2909   0.127E-01    0.127E-01
RMM:   3    -0.894689609349E+03   -0.99801E-04   -0.63925E-04  1768   0.439E-02
  45 F= -.91570947E+03 E0= -.91570947E+03  d E =-.198761E-02  mag=    -0.0000
       N       E                     dE             d eps       ncg     rms          rms(c)
DAV:   1    -0.894688349588E+03    0.11600E-02   -0.15063E-01  2480   0.371E-01    0.403E-01
RMM:   2    -0.894688750310E+03   -0.40072E-03   -0.62548E-03  2548   0.856E-02    0.140E-01
RMM:   3    -0.894688748006E+03    0.23046E-05   -0.42124E-04  1568   0.412E-02
  46 F= -.91570859E+03 E0= -.91570859E+03  d E =0.881459E-03  mag=    -0.0000
       N       E                     dE             d eps       ncg     rms          rms(c)
DAV:   1    -0.894689616745E+03   -0.86643E-03   -0.91379E-02  2544   0.295E-01    0.145E-01
RMM:   2    -0.894689833515E+03   -0.21677E-03   -0.21634E-03  2037   0.601E-02    0.474E-02
RMM:   3    -0.894689884105E+03   -0.50590E-04   -0.20930E-04  1296   0.334E-02
  47 F= -.91570987E+03 E0= -.91570986E+03  d E =-.127446E-02  mag=    -0.0000
       N       E                     dE             d eps       ncg     rms          rms(c)
DAV:   1    -0.894691104272E+03   -0.12708E-02   -0.16258E-01  2464   0.389E-01    0.112E-01
RMM:   2    -0.894691188728E+03   -0.84456E-04   -0.31954E-03  2232   0.707E-02    0.728E-02
RMM:   3    -0.894691292605E+03   -0.10388E-03   -0.32944E-04  1424   0.346E-02    0.535E-02
RMM:   4    -0.894691415272E+03   -0.12267E-03   -0.18287E-04  1382   0.229E-02    0.300E-02
RMM:   5    -0.894691511901E+03   -0.96629E-04   -0.10566E-04  1312   0.217E-02
  48 F= -.91571166E+03 E0= -.91571165E+03  d E =-.179079E-02  mag=    -0.0000
       N       E                     dE             d eps       ncg     rms          rms(c)
DAV:   1    -0.894689884785E+03    0.15305E-02   -0.14844E-01  2496   0.366E-01    0.963E-02
RMM:   2    -0.894690010684E+03   -0.12590E-03   -0.27048E-03  1971   0.637E-02    0.585E-02
RMM:   3    -0.894690070054E+03   -0.59370E-04   -0.27022E-04  1317   0.339E-02
  49 F= -.91571003E+03 E0= -.91571002E+03  d E =0.163051E-02  mag=    -0.0000
       N       E                     dE             d eps       ncg     rms          rms(c)
DAV:   1    -0.894691233533E+03   -0.12228E-02   -0.19702E-01  2432   0.430E-01    0.105E-01
RMM:   2    -0.894691546836E+03   -0.31330E-03   -0.38412E-03  2321   0.808E-02    0.544E-02
RMM:   3    -0.894691593738E+03   -0.46901E-04   -0.32114E-04  1426   0.394E-02
  50 F= -.91571175E+03 E0= -.91571175E+03  d E =-.172092E-02  mag=    -0.0000
       N       E                     dE             d eps       ncg     rms          rms(c)
DAV:   1    -0.894692995690E+03   -0.14489E-02   -0.13505E+00  2432   0.109E+00    0.297E-01
RMM:   2    -0.894694521360E+03   -0.15257E-02   -0.25178E-02  2812   0.182E-01    0.185E-01
RMM:   3    -0.894694911794E+03   -0.39043E-03   -0.20640E-03  1957   0.662E-02    0.131E-01
RMM:   4    -0.894695525705E+03   -0.61391E-03   -0.93022E-04  1816   0.352E-02    0.578E-02
RMM:   5    -0.894695684086E+03   -0.15838E-03   -0.18051E-04  1573   0.310E-02    0.239E-02
RMM:   6    -0.894695719326E+03   -0.35239E-04   -0.94680E-05  1433   0.194E-02
  51 F= -.91571640E+03 E0= -.91571640E+03  d E =-.465638E-02  mag=    -0.0000
       N       E                     dE             d eps       ncg     rms          rms(c)
DAV:   1    -0.894694751989E+03    0.93210E-03   -0.81508E-02  2528   0.293E-01    0.113E-01
RMM:   2    -0.894694871765E+03   -0.11978E-03   -0.19825E-03  2232   0.700E-02    0.600E-02
RMM:   3    -0.894694898824E+03   -0.27059E-04   -0.21546E-04  1323   0.309E-02
  52 F= -.91571552E+03 E0= -.91571551E+03  d E =0.886780E-03  mag=    -0.0000
       N       E                     dE             d eps       ncg     rms          rms(c)
DAV:   1    -0.894694690958E+03    0.18081E-03   -0.75030E-03  2576   0.920E-02    0.530E-02
RMM:   2    -0.894694689108E+03    0.18504E-05   -0.17207E-04  1310   0.224E-02
  53 F= -.91571528E+03 E0= -.91571527E+03  d E =0.241001E-03  mag=    -0.0000
       N       E                     dE             d eps       ncg     rms          rms(c)
DAV:   1    -0.894695893888E+03   -0.12029E-02   -0.50588E-01  2432   0.673E-01    0.214E-01
RMM:   2    -0.894696627460E+03   -0.73357E-03   -0.10340E-02  2710   0.122E-01    0.104E-01
RMM:   3    -0.894696742146E+03   -0.11469E-03   -0.84741E-04  1589   0.474E-02    0.891E-02
RMM:   4    -0.894696868230E+03   -0.12608E-03   -0.33303E-04  1459   0.295E-02    0.540E-02
RMM:   5    -0.894697002524E+03   -0.13429E-03   -0.17163E-04  1374   0.251E-02    0.207E-02
RMM:   6    -0.894697024466E+03   -0.21941E-04   -0.59964E-05  1297   0.197E-02
  54 F= -.91571793E+03 E0= -.91571793E+03  d E =-.265605E-02  mag=    -0.0000
       N       E                     dE             d eps       ncg     rms          rms(c)
DAV:   1    -0.894697379700E+03   -0.37718E-03   -0.15672E-02  2592   0.135E-01    0.516E-02
RMM:   2    -0.894697378916E+03    0.78398E-06   -0.43535E-04  1526   0.397E-02
  55 F= -.91571841E+03 E0= -.91571841E+03  d E =-.478234E-03  mag=    -0.0000
       N       E                     dE             d eps       ncg     rms          rms(c)
DAV:   1    -0.894698725835E+03   -0.13461E-02   -0.13959E+00  2432   0.111E+00    0.306E-01
RMM:   2    -0.894700318783E+03   -0.15929E-02   -0.26556E-02  2869   0.192E-01    0.181E-01
RMM:   3    -0.894700749496E+03   -0.43071E-03   -0.22782E-03  1982   0.692E-02    0.129E-01
RMM:   4    -0.894701387114E+03   -0.63762E-03   -0.94633E-04  1766   0.372E-02    0.540E-02
RMM:   5    -0.894701592368E+03   -0.20525E-03   -0.18758E-04  1430   0.327E-02    0.203E-02
RMM:   6    -0.894701619887E+03   -0.27519E-04   -0.99966E-05  1323   0.209E-02
  56 F= -.91572321E+03 E0= -.91572321E+03  d E =-.480480E-02  mag=    -0.0000
       N       E                     dE             d eps       ncg     rms          rms(c)
DAV:   1    -0.894697387352E+03    0.42050E-02   -0.65987E-01  2432   0.795E-01    0.229E-01
RMM:   2    -0.894698135032E+03   -0.74768E-03   -0.13843E-02  2872   0.160E-01    0.124E-01
RMM:   3    -0.894698292831E+03   -0.15780E-03   -0.12039E-03  1835   0.554E-02    0.960E-02
RMM:   4    -0.894698533502E+03   -0.24067E-03   -0.40818E-04  1494   0.327E-02    0.603E-02
RMM:   5    -0.894698776607E+03   -0.24310E-03   -0.20159E-04  1395   0.284E-02    0.264E-02
RMM:   6    -0.894698818660E+03   -0.42053E-04   -0.80240E-05  1336   0.232E-02
  57 F= -.91571995E+03 E0= -.91571995E+03  d E =0.326839E-02  mag=    -0.0000
       N       E                     dE             d eps       ncg     rms          rms(c)
DAV:   1    -0.894697892749E+03    0.88386E-03   -0.11240E-01  2496   0.334E-01    0.262E-01
RMM:   2    -0.894698043146E+03   -0.15040E-03   -0.41804E-03  2649   0.882E-02    0.113E-01
RMM:   3    -0.894698054262E+03   -0.11115E-04   -0.28978E-04  1405   0.343E-02
  58 F= -.91571915E+03 E0= -.91571915E+03  d E =0.796436E-03  mag=    -0.0000
       N       E                     dE             d eps       ncg     rms          rms(c)
DAV:   1    -0.894697412123E+03    0.63102E-03   -0.34222E+00  2432   0.174E+00    0.459E-01
RMM:   2    -0.894702217885E+03   -0.48058E-02   -0.65017E-02  2924   0.308E-01    0.259E-01
RMM:   3    -0.894703049611E+03   -0.83173E-03   -0.57962E-03  2457   0.108E-01    0.179E-01
RMM:   4    -0.894704159557E+03   -0.11099E-02   -0.22728E-03  1996   0.482E-02    0.806E-02
RMM:   5    -0.894704519144E+03   -0.35959E-03   -0.42031E-04  1544   0.390E-02    0.315E-02
RMM:   6    -0.894704583440E+03   -0.64296E-04   -0.17757E-04  1396   0.242E-02
  59 F= -.91572670E+03 E0= -.91572670E+03  d E =-.755317E-02  mag=    -0.0000
       N       E                     dE             d eps       ncg     rms          rms(c)
DAV:   1    -0.894705633101E+03   -0.11140E-02   -0.16308E-01  2496   0.384E-01    0.101E-01
RMM:   2    -0.894705766593E+03   -0.13349E-03   -0.31583E-03  2156   0.696E-02    0.630E-02
RMM:   3    -0.894705842292E+03   -0.75699E-04   -0.31286E-04  1403   0.331E-02
  60 F= -.91572820E+03 E0= -.91572820E+03  d E =-.149569E-02  mag=    -0.0000
       N       E                     dE             d eps       ncg     rms          rms(c)
DAV:   1    -0.894707126049E+03   -0.13595E-02   -0.22277E-01  2480   0.463E-01    0.150E-01
RMM:   2    -0.894707298211E+03   -0.17216E-03   -0.48421E-03  2522   0.900E-02    0.903E-02
RMM:   3    -0.894707436435E+03   -0.13822E-03   -0.48316E-04  1539   0.381E-02    0.688E-02
RMM:   4    -0.894707610642E+03   -0.17421E-03   -0.26366E-04  1454   0.296E-02    0.327E-02
RMM:   5    -0.894707700215E+03   -0.89573E-04   -0.10791E-04  1313   0.254E-02
  61 F= -.91573037E+03 E0= -.91573036E+03  d E =-.216654E-02  mag=    -0.0000
       N       E                     dE             d eps       ncg     rms          rms(c)
DAV:   1    -0.894704457796E+03    0.31528E-02   -0.43944E-01  2432   0.636E-01    0.191E-01
RMM:   2    -0.894704898166E+03   -0.44037E-03   -0.86192E-03  2551   0.113E-01    0.109E-01
RMM:   3    -0.894705055186E+03   -0.15702E-03   -0.77025E-04  1469   0.459E-02    0.776E-02
RMM:   4    -0.894705297539E+03   -0.24235E-03   -0.31642E-04  1357   0.293E-02    0.365E-02
RMM:   5    -0.894705385562E+03   -0.88023E-04   -0.12248E-04  1244   0.250E-02
  62 F= -.91572764E+03 E0= -.91572764E+03  d E =0.272836E-02  mag=    -0.0000
       N       E                     dE             d eps       ncg     rms          rms(c)
DAV:   1    -0.894706873096E+03   -0.15756E-02   -0.44891E-01  2432   0.644E-01    0.230E-01
RMM:   2    -0.894707402016E+03   -0.52892E-03   -0.95024E-03  2705   0.120E-01    0.120E-01
RMM:   3    -0.894707532923E+03   -0.13091E-03   -0.77392E-04  1548   0.463E-02    0.975E-02
RMM:   4    -0.894707706531E+03   -0.17361E-03   -0.37824E-04  1461   0.313E-02    0.535E-02
RMM:   5    -0.894707840371E+03   -0.13384E-03   -0.17045E-04  1318   0.285E-02    0.239E-02
RMM:   6    -0.894707858043E+03   -0.17671E-04   -0.63979E-05  1264   0.220E-02
  63 F= -.91573058E+03 E0= -.91573058E+03  d E =-.294120E-02  mag=    -0.0000
       N       E                     dE             d eps       ncg     rms          rms(c)
DAV:   1    -0.894707931415E+03   -0.91043E-04   -0.48682E-04  2272   0.270E-02    0.205E-02
RMM:   2    -0.894707934151E+03   -0.27359E-05   -0.33271E-05  1219   0.132E-02
  64 F= -.91573066E+03 E0= -.91573066E+03  d E =-.862250E-04  mag=    -0.0000
       N       E                     dE             d eps       ncg     rms          rms(c)
DAV:   1    -0.894703587394E+03    0.43440E-02   -0.63574E-01  2432   0.779E-01    0.357E-01
RMM:   2    -0.894704464836E+03   -0.87744E-03   -0.15526E-02  2964   0.160E-01    0.170E-01
RMM:   3    -0.894704619370E+03   -0.15453E-03   -0.12083E-03  1838   0.525E-02    0.155E-01
RMM:   4    -0.894704869549E+03   -0.25018E-03   -0.60163E-04  1615   0.361E-02    0.878E-02
RMM:   5    -0.894705075212E+03   -0.20566E-03   -0.23228E-04  1424   0.316E-02    0.437E-02
RMM:   6    -0.894705115389E+03   -0.40177E-04   -0.81745E-05  1351   0.245E-02
  65 F= -.91572722E+03 E0= -.91572722E+03  d E =0.344736E-02  mag=    -0.0000
       N       E                     dE             d eps       ncg     rms          rms(c)
DAV:   1    -0.894705745126E+03   -0.66991E-03   -0.47145E-02  2560   0.209E-01    0.650E-02
RMM:   2    -0.894705787118E+03   -0.41992E-04   -0.92277E-04  1669   0.399E-02
  66 F= -.91572799E+03 E0= -.91572799E+03  d E =-.776590E-03  mag=    -0.0000
       N       E                     dE             d eps       ncg     rms          rms(c)
DAV:   1    -0.894706532286E+03   -0.78716E-03   -0.73043E-02  2512   0.263E-01    0.136E-01
RMM:   2    -0.894706539063E+03   -0.67779E-05   -0.17363E-03  1998   0.525E-02    0.686E-02
RMM:   3    -0.894706583693E+03   -0.44630E-04   -0.18711E-04  1387   0.292E-02
  67 F= -.91572882E+03 E0= -.91572882E+03  d E =-.829790E-03  mag=    -0.0000
       N       E                     dE             d eps       ncg     rms          rms(c)
DAV:   1    -0.894707591695E+03   -0.10526E-02   -0.18260E+00  2432   0.127E+00    0.360E-01
RMM:   2    -0.894709395143E+03   -0.18034E-02   -0.32913E-02  2816   0.212E-01    0.210E-01
RMM:   3    -0.894709915319E+03   -0.52018E-03   -0.35459E-03  1978   0.845E-02    0.157E-01
RMM:   4    -0.894710636256E+03   -0.72094E-03   -0.14334E-03  1823   0.387E-02    0.899E-02
RMM:   5    -0.894711140018E+03   -0.50376E-03   -0.33673E-04  1565   0.323E-02    0.367E-02
RMM:   6    -0.894711196041E+03   -0.56023E-04   -0.11191E-04  1448   0.231E-02
  68 F= -.91573412E+03 E0= -.91573412E+03  d E =-.530013E-02  mag=    -0.0000
       N       E                     dE             d eps       ncg     rms          rms(c)
DAV:   1    -0.894710993226E+03    0.14679E-03   -0.98952E-03  2688   0.121E-01    0.326E-02
RMM:   2    -0.894711020929E+03   -0.27702E-04   -0.35628E-04  1656   0.459E-02
  69 F= -.91573401E+03 E0= -.91573401E+03  d E =0.108522E-03  mag=    -0.0000
       N       E                     dE             d eps       ncg     rms          rms(c)
DAV:   1    -0.894710646799E+03    0.34643E-03   -0.14146E-02  2912   0.121E-01    0.386E-02
RMM:   2    -0.894710652481E+03   -0.56818E-05   -0.28720E-04  1421   0.284E-02
  70 F= -.91573360E+03 E0= -.91573360E+03  d E =0.415420E-03  mag=    -0.0000
       N       E                     dE             d eps       ncg     rms          rms(c)
DAV:   1    -0.894707722488E+03    0.29243E-02   -0.40951E+00  2432   0.197E+00    0.482E-01
RMM:   2    -0.894713872082E+03   -0.61496E-02   -0.83843E-02  3008   0.379E-01    0.277E-01
RMM:   3    -0.894714871585E+03   -0.99950E-03   -0.78181E-03  2901   0.128E-01    0.197E-01
RMM:   4    -0.894716107477E+03   -0.12359E-02   -0.25984E-03  2270   0.535E-02    0.995E-02
RMM:   5    -0.894716589474E+03   -0.48200E-03   -0.45611E-04  1650   0.414E-02    0.353E-02
RMM:   6    -0.894716651130E+03   -0.61655E-04   -0.18830E-04  1557   0.288E-02
  71 F= -.91574007E+03 E0= -.91574007E+03  d E =-.647121E-02  mag=    -0.0000
       N       E                     dE             d eps       ncg     rms          rms(c)
DAV:   1    -0.894716262847E+03    0.32663E-03   -0.37096E-02  2784   0.224E-01    0.546E-02
RMM:   2    -0.894716334939E+03   -0.72092E-04   -0.12910E-03  2360   0.706E-02    0.477E-02
RMM:   3    -0.894716351976E+03   -0.17037E-04   -0.18295E-04  1427   0.265E-02
  72 F= -.91573991E+03 E0= -.91573990E+03  d E =0.164954E-03  mag=    -0.0000
       N       E                     dE             d eps       ncg     rms          rms(c)
DAV:   1    -0.894716921055E+03   -0.58612E-03   -0.37298E-02  2800   0.208E-01    0.595E-02
RMM:   2    -0.894716988803E+03   -0.67749E-04   -0.98617E-04  2008   0.555E-02
  73 F= -.91574068E+03 E0= -.91574068E+03  d E =-.778876E-03  mag=    -0.0000
       N       E                     dE             d eps       ncg     rms          rms(c)
DAV:   1    -0.894717609958E+03   -0.68890E-03   -0.78093E-02  2576   0.301E-01    0.105E-01
RMM:   2    -0.894717687328E+03   -0.77371E-04   -0.23667E-03  2550   0.820E-02    0.742E-02
RMM:   3    -0.894717745299E+03   -0.57971E-04   -0.31844E-04  1541   0.320E-02
  74 F= -.91574171E+03 E0= -.91574171E+03  d E =-.102876E-02  mag=    -0.0000
       N       E                     dE             d eps       ncg     rms          rms(c)
DAV:   1    -0.894718089129E+03   -0.40180E-03   -0.13307E+00  2448   0.118E+00    0.376E-01
RMM:   2    -0.894719745653E+03   -0.16565E-02   -0.31888E-02  2939   0.276E-01    0.218E-01
RMM:   3    -0.894720337460E+03   -0.59181E-03   -0.45865E-03  2951   0.924E-02    0.169E-01
RMM:   4    -0.894721006439E+03   -0.66898E-03   -0.12602E-03  1977   0.427E-02    0.101E-01
RMM:   5    -0.894721486319E+03   -0.47988E-03   -0.40820E-04  1646   0.380E-02    0.451E-02
RMM:   6    -0.894721550440E+03   -0.64121E-04   -0.16072E-04  1531   0.311E-02
  75 F= -.91574911E+03 E0= -.91574911E+03  d E =-.739768E-02  mag=    -0.0000
       N       E                     dE             d eps       ncg     rms          rms(c)
DAV:   1    -0.894704071345E+03    0.17415E-01   -0.45867E+00  2464   0.215E+00    0.722E-01
RMM:   2    -0.894711019731E+03   -0.69484E-02   -0.10690E-01  3004   0.463E-01    0.368E-01
RMM:   3    -0.894712176423E+03   -0.11567E-02   -0.11355E-02  3005   0.152E-01    0.293E-01
RMM:   4    -0.894713360423E+03   -0.11840E-02   -0.30796E-03  2427   0.574E-02    0.185E-01
RMM:   5    -0.894714447947E+03   -0.10875E-02   -0.94359E-04  2005   0.471E-02    0.923E-02
RMM:   6    -0.894714626604E+03   -0.17866E-03   -0.25801E-04  1553   0.339E-02    0.489E-02
RMM:   7    -0.894714654418E+03   -0.27814E-04   -0.12273E-04  1479   0.259E-02
  76 F= -.91573795E+03 E0= -.91573795E+03  d E =0.111562E-01  mag=    -0.0000
       N       E                     dE             d eps       ncg     rms          rms(c)
DAV:   1    -0.894715475204E+03   -0.84860E-03   -0.15499E+00  2432   0.123E+00    0.424E-01
RMM:   2    -0.894717396302E+03   -0.19211E-02   -0.33653E-02  2972   0.245E-01    0.209E-01
RMM:   3    -0.894717770352E+03   -0.37405E-03   -0.30644E-03  2206   0.838E-02    0.169E-01
RMM:   4    -0.894718332298E+03   -0.56195E-03   -0.11475E-03  1818   0.405E-02    0.999E-02
RMM:   5    -0.894718764384E+03   -0.43209E-03   -0.32100E-04  1478   0.367E-02    0.505E-02
RMM:   6    -0.894718834491E+03   -0.70107E-04   -0.13161E-04  1361   0.262E-02
  77 F= -.91574291E+03 E0= -.91574291E+03  d E =-.495538E-02  mag=    -0.0000
       N       E                     dE             d eps       ncg     rms          rms(c)
DAV:   1    -0.894719978210E+03   -0.12138E-02   -0.36436E-01  2496   0.595E-01    0.204E-01
RMM:   2    -0.894720302506E+03   -0.32430E-03   -0.80508E-03  2761   0.121E-01    0.105E-01
RMM:   3    -0.894720433490E+03   -0.13098E-03   -0.75774E-04  1691   0.440E-02    0.849E-02
RMM:   4    -0.894720644763E+03   -0.21127E-03   -0.32642E-04  1522   0.302E-02    0.520E-02
RMM:   5    -0.894720814668E+03   -0.16991E-03   -0.14138E-04  1414   0.251E-02    0.242E-02
RMM:   6    -0.894720844388E+03   -0.29720E-04   -0.68117E-05  1372   0.213E-02
  78 F= -.91574804E+03 E0= -.91574804E+03  d E =-.512828E-02  mag=    -0.0000
       N       E                     dE             d eps       ncg     rms          rms(c)
DAV:   1    -0.894721103531E+03   -0.28886E-03   -0.54248E-03  2992   0.743E-02    0.342E-02
RMM:   2    -0.894721110369E+03   -0.68376E-05   -0.12605E-04  1329   0.186E-02
  79 F= -.91574832E+03 E0= -.91574832E+03  d E =-.285201E-03  mag=    -0.0000
       N       E                     dE             d eps       ncg     rms          rms(c)
DAV:   1    -0.894721523757E+03   -0.42023E-03   -0.16494E-02  2656   0.127E-01    0.620E-02
RMM:   2    -0.894721502148E+03    0.21609E-04   -0.35681E-04  1408   0.281E-02
  80 F= -.91574879E+03 E0= -.91574879E+03  d E =-.469961E-03  mag=    -0.0000
       N       E                     dE             d eps       ncg     rms          rms(c)
DAV:   1    -0.894721906254E+03   -0.38250E-03   -0.28120E-02  2496   0.162E-01    0.179E-01
RMM:   2    -0.894721886710E+03    0.19544E-04   -0.11673E-03  1882   0.426E-02    0.832E-02
RMM:   3    -0.894721931118E+03   -0.44408E-04   -0.11582E-04  1319   0.253E-02
  81 F= -.91574918E+03 E0= -.91574918E+03  d E =-.386088E-03  mag=    -0.0000
       N       E                     dE             d eps       ncg     rms          rms(c)
DAV:   1    -0.894722470026E+03   -0.58332E-03   -0.18473E-01  2512   0.426E-01    0.182E-01
RMM:   2    -0.894722719601E+03   -0.24958E-03   -0.45197E-03  2556   0.906E-02    0.880E-02
RMM:   3    -0.894722795981E+03   -0.76380E-04   -0.40788E-04  1451   0.359E-02
  82 F= -.91575033E+03 E0= -.91575033E+03  d E =-.115490E-02  mag=    -0.0000
       N       E                     dE             d eps       ncg     rms          rms(c)
DAV:   1    -0.894723115918E+03   -0.39632E-03   -0.16836E-02  3200   0.134E-01    0.103E-01
RMM:   2    -0.894723119861E+03   -0.39420E-05   -0.57081E-04  1569   0.337E-02
  83 F= -.91575071E+03 E0= -.91575071E+03  d E =-.375064E-03  mag=    -0.0000
       N       E                     dE             d eps       ncg     rms          rms(c)
DAV:   1    -0.894724083952E+03   -0.96803E-03   -0.48728E-01  2496   0.676E-01    0.292E-01
RMM:   2    -0.894724518836E+03   -0.43488E-03   -0.11047E-02  2789   0.131E-01    0.168E-01
RMM:   3    -0.894724801522E+03   -0.28269E-03   -0.12602E-03  1799   0.468E-02    0.137E-01
RMM:   4    -0.894725137144E+03   -0.33562E-03   -0.50876E-04  1654   0.356E-02    0.639E-02
RMM:   5    -0.894725313587E+03   -0.17644E-03   -0.18006E-04  1415   0.299E-02    0.361E-02
RMM:   6    -0.894725337486E+03   -0.23899E-04   -0.72223E-05  1338   0.225E-02
  84 F= -.91575334E+03 E0= -.91575333E+03  d E =-.262534E-02  mag=    -0.0000
       N       E                     dE             d eps       ncg     rms          rms(c)
DAV:   1    -0.894725122750E+03    0.19084E-03   -0.50811E-03  2800   0.716E-02    0.276E-02
RMM:   2    -0.894725133444E+03   -0.10694E-04   -0.93553E-05  1284   0.171E-02
  85 F= -.91575310E+03 E0= -.91575310E+03  d E =0.239318E-03  mag=    -0.0000
       N       E                     dE             d eps       ncg     rms          rms(c)
DAV:   1    -0.894725187947E+03   -0.65197E-04   -0.26757E-03  2544   0.632E-02    0.281E-02
RMM:   2    -0.894725195198E+03   -0.72510E-05   -0.10160E-04  1272   0.257E-02
  86 F= -.91575316E+03 E0= -.91575316E+03  d E =-.682481E-04  mag=    -0.0000
       N       E                     dE             d eps       ncg     rms          rms(c)
DAV:   1    -0.894726108451E+03   -0.92050E-03   -0.72908E-01  2432   0.851E-01    0.245E-01
RMM:   2    -0.894727018956E+03   -0.91051E-03   -0.15676E-02  2911   0.170E-01    0.139E-01
RMM:   3    -0.894727310100E+03   -0.29114E-03   -0.16071E-03  2012   0.575E-02    0.105E-01
RMM:   4    -0.894727644368E+03   -0.33427E-03   -0.53584E-04  1678   0.356E-02    0.537E-02
RMM:   5    -0.894727819791E+03   -0.17542E-03   -0.17646E-04  1458   0.316E-02    0.210E-02
RMM:   6    -0.894727841480E+03   -0.21689E-04   -0.76379E-05  1374   0.228E-02
  87 F= -.91575619E+03 E0= -.91575619E+03  d E =-.302317E-02  mag=    -0.0000
       N       E                     dE             d eps       ncg     rms          rms(c)
DAV:   1    -0.894728709215E+03   -0.88942E-03   -0.19928E-01  2496   0.448E-01    0.119E-01
RMM:   2    -0.894728912396E+03   -0.20318E-03   -0.43405E-03  2569   0.928E-02    0.717E-02
RMM:   3    -0.894729014012E+03   -0.10162E-03   -0.45465E-04  1597   0.361E-02    0.524E-02
RMM:   4    -0.894729166397E+03   -0.15238E-03   -0.22330E-04  1526   0.309E-02    0.238E-02
RMM:   5    -0.894729217325E+03   -0.50929E-04   -0.84946E-05  1427   0.225E-02
  88 F= -.91575773E+03 E0= -.91575773E+03  d E =-.154500E-02  mag=    -0.0000
       N       E                     dE             d eps       ncg     rms          rms(c)
DAV:   1    -0.894729547670E+03   -0.38127E-03   -0.17484E-02  2960   0.139E-01    0.335E-02
RMM:   2    -0.894729556159E+03   -0.84890E-05   -0.38582E-04  1586   0.340E-02
  89 F= -.91575811E+03 E0= -.91575811E+03  d E =-.380949E-03  mag=    -0.0000
       N       E                     dE             d eps       ncg     rms          rms(c)
DAV:   1    -0.894729716088E+03   -0.16842E-03   -0.12742E-02  2576   0.131E-01    0.420E-02
RMM:   2    -0.894729714059E+03    0.20298E-05   -0.40577E-04  1616   0.441E-02
  90 F= -.91575831E+03 E0= -.91575831E+03  d E =-.194187E-03  mag=    -0.0000
       N       E                     dE             d eps       ncg     rms          rms(c)
DAV:   1    -0.894726526350E+03    0.31897E-02   -0.47058E-01  2432   0.674E-01    0.235E-01
RMM:   2    -0.894727234057E+03   -0.70771E-03   -0.10072E-02  2794   0.130E-01    0.122E-01
RMM:   3    -0.894727357396E+03   -0.12334E-03   -0.84625E-04  1652   0.443E-02    0.103E-01
RMM:   4    -0.894727523624E+03   -0.16623E-03   -0.37861E-04  1487   0.323E-02    0.579E-02
RMM:   5    -0.894727628176E+03   -0.10455E-03   -0.13879E-04  1419   0.258E-02    0.252E-02
RMM:   6    -0.894727649330E+03   -0.21154E-04   -0.59794E-05  1328   0.204E-02
  91 F= -.91575597E+03 E0= -.91575597E+03  d E =0.233479E-02  mag=    -0.0000
       N       E                     dE             d eps       ncg     rms          rms(c)
DAV:   1    -0.894728501519E+03   -0.87334E-03   -0.21451E-01  2432   0.462E-01    0.136E-01
RMM:   2    -0.894728731459E+03   -0.22994E-03   -0.45116E-03  2504   0.948E-02    0.764E-02
RMM:   3    -0.894728819169E+03   -0.87711E-04   -0.43479E-04  1434   0.379E-02
  92 F= -.91575740E+03 E0= -.91575740E+03  d E =-.142398E-02  mag=    -0.0000
       N       E                     dE             d eps       ncg     rms          rms(c)
DAV:   1    -0.894728548668E+03    0.18279E-03   -0.91619E-01  2432   0.101E+00    0.310E-01
RMM:   2    -0.894729799977E+03   -0.12513E-02   -0.23495E-02  2971   0.247E-01    0.165E-01
RMM:   3    -0.894730291711E+03   -0.49173E-03   -0.32649E-03  2899   0.808E-02    0.128E-01
RMM:   4    -0.894730822683E+03   -0.53097E-03   -0.11221E-03  1988   0.379E-02    0.739E-02
RMM:   5    -0.894731133555E+03   -0.31087E-03   -0.29636E-04  1592   0.375E-02    0.340E-02
RMM:   6    -0.894731191746E+03   -0.58190E-04   -0.14660E-04  1497   0.291E-02
  93 F= -.91576020E+03 E0= -.91576020E+03  d E =-.280564E-02  mag=    -0.0000
       N       E                     dE             d eps       ncg     rms          rms(c)
DAV:   1    -0.894715306316E+03    0.15827E-01   -0.39762E+00  2432   0.215E+00    0.694E-01
RMM:   2    -0.894722778388E+03   -0.74721E-02   -0.10863E-01  2986   0.556E-01    0.346E-01
RMM:   3    -0.894724365557E+03   -0.15872E-02   -0.14853E-02  3237   0.172E-01    0.276E-01
RMM:   4    -0.894725536189E+03   -0.11706E-02   -0.39773E-03  3109   0.683E-02    0.175E-01
RMM:   5    -0.894726492205E+03   -0.95602E-03   -0.12850E-03  2341   0.436E-02    0.793E-02
RMM:   6    -0.894726649260E+03   -0.15705E-03   -0.36555E-04  1665   0.372E-02    0.432E-02
RMM:   7    -0.894726688724E+03   -0.39464E-04   -0.21320E-04  1566   0.284E-02
  94 F= -.91575492E+03 E0= -.91575492E+03  d E =0.527920E-02  mag=    -0.0000
       N       E                     dE             d eps       ncg     rms          rms(c)
DAV:   1    -0.894727518323E+03   -0.86906E-03   -0.62543E-01  2432   0.813E-01    0.218E-01
RMM:   2    -0.894728373668E+03   -0.85534E-03   -0.14195E-02  2952   0.176E-01    0.119E-01
RMM:   3    -0.894728583361E+03   -0.20969E-03   -0.12427E-03  1954   0.558E-02    0.866E-02
RMM:   4    -0.894728838395E+03   -0.25503E-03   -0.47355E-04  1516   0.344E-02    0.501E-02
RMM:   5    -0.894729016462E+03   -0.17807E-03   -0.17162E-04  1348   0.315E-02    0.228E-02
RMM:   6    -0.894729040489E+03   -0.24027E-04   -0.85380E-05  1334   0.234E-02
  95 F= -.91575774E+03 E0= -.91575774E+03  d E =-.281579E-02  mag=    -0.0000
       N       E                     dE             d eps       ncg     rms          rms(c)
DAV:   1    -0.894729004912E+03    0.11549E-04   -0.57904E-03  2672   0.890E-02    0.498E-02
RMM:   2    -0.894729019517E+03   -0.14604E-04   -0.21144E-04  1410   0.332E-02
  96 F= -.91575771E+03 E0= -.91575771E+03  d E =0.292591E-04  mag=    -0.0000
       N       E                     dE             d eps       ncg     rms          rms(c)
DAV:   1    -0.894729039083E+03   -0.34171E-04   -0.51322E-04  2608   0.338E-02    0.171E-02
RMM:   2    -0.894729047485E+03   -0.84015E-05   -0.38010E-05  1208   0.159E-02
  97 F= -.91575772E+03 E0= -.91575772E+03  d E =-.127834E-04  mag=    -0.0000
       N       E                     dE             d eps       ncg     rms          rms(c)
DAV:   1    -0.894729537724E+03   -0.49864E-03   -0.26336E-02  2464   0.157E-01    0.495E-02
RMM:   2    -0.894729537539E+03    0.18545E-06   -0.51559E-04  1396   0.311E-02
  98 F= -.91575833E+03 E0= -.91575833E+03  d E =-.606061E-03  mag=    -0.0000
       N       E                     dE             d eps       ncg     rms          rms(c)
DAV:   1    -0.894730768625E+03   -0.12309E-02   -0.75368E-01  2432   0.852E-01    0.264E-01
RMM:   2    -0.894731506408E+03   -0.73778E-03   -0.15694E-02  2881   0.160E-01    0.157E-01
RMM:   3    -0.894731899474E+03   -0.39307E-03   -0.16342E-03  1939   0.553E-02    0.115E-01
RMM:   4    -0.894732351361E+03   -0.45189E-03   -0.71511E-04  1715   0.371E-02    0.495E-02
RMM:   5    -0.894732516535E+03   -0.16517E-03   -0.15712E-04  1407   0.310E-02    0.210E-02
RMM:   6    -0.894732533714E+03   -0.17179E-04   -0.75763E-05  1349   0.211E-02
  99 F= -.91576173E+03 E0= -.91576173E+03  d E =-.340031E-02  mag=    -0.0000
       N       E                     dE             d eps       ncg     rms          rms(c)
DAV:   1    -0.894723335381E+03    0.91812E-02   -0.20186E+00  2432   0.141E+00    0.400E-01
RMM:   2    -0.894726124916E+03   -0.27895E-02   -0.42098E-02  2963   0.276E-01    0.235E-01
RMM:   3    -0.894726806614E+03   -0.68170E-03   -0.42755E-03  2551   0.940E-02    0.160E-01
RMM:   4    -0.894727607126E+03   -0.80051E-03   -0.15439E-03  1975   0.457E-02    0.719E-02
RMM:   5    -0.894727901684E+03   -0.29456E-03   -0.26474E-04  1366   0.382E-02    0.289E-02
RMM:   6    -0.894727938032E+03   -0.36347E-04   -0.11638E-04  1266   0.240E-02
 100 F= -.91575638E+03 E0= -.91575638E+03  d E =0.535138E-02  mag=    -0.0000
