       N       E                     dE             d eps       ncg     rms          rms(c)
DAV:   1    -0.886065015229E+03   -0.88607E+03   -0.74426E-03  4208   0.351E-01    0.107E-01
RMM:   2    -0.886064738289E+03    0.27694E-03   -0.59907E-03  3016   0.999E-02    0.118E-01
RMM:   3    -0.886064525986E+03    0.21230E-03   -0.50337E-04  1796   0.550E-02    0.857E-02
RMM:   4    -0.886064477708E+03    0.48278E-04   -0.14784E-03  2339   0.452E-02    0.461E-02
RMM:   5    -0.886064501648E+03   -0.23940E-04   -0.25290E-04  1484   0.381E-02
   1 F= -.90703773E+03 E0= -.90703773E+03  d E =-.907038E+03  mag=     2.0000
       N       E                     dE             d eps       ncg     rms          rms(c)
DAV:   1    -0.886070971701E+03   -0.64940E-02   -0.55139E-01  2624   0.101E+00    0.220E-01
RMM:   2    -0.886072824283E+03   -0.18526E-02   -0.28616E-02  2820   0.364E-01    0.347E-01
RMM:   3    -0.886073602631E+03   -0.77835E-03   -0.79789E-03  3384   0.108E-01    0.347E-01
RMM:   4    -0.886073618402E+03   -0.15771E-04   -0.20449E-03  2859   0.575E-02    0.348E-01
RMM:   5    -0.886073964097E+03   -0.34570E-03   -0.27606E-03  2979   0.588E-02    0.325E-01
RMM:   6    -0.886074032645E+03   -0.68548E-04   -0.73514E-04  1955   0.468E-02
   2 F= -.90704800E+03 E0= -.90704800E+03  d E =-.102693E-01  mag=     2.0000
       N       E                     dE             d eps       ncg     rms          rms(c)
DAV:   1    -0.886060493532E+03    0.13471E-01   -0.45781E+00  2432   0.290E+00    0.795E-01
RMM:   2    -0.886072554693E+03   -0.12061E-01   -0.26516E-01  2971   0.106E+00    0.101E+00
RMM:   3    -0.886079324309E+03   -0.67696E-02   -0.73053E-02  3510   0.315E-01    0.960E-01
RMM:   4    -0.886080827120E+03   -0.15028E-02   -0.29336E-02  3353   0.206E-01    0.908E-01
RMM:   5    -0.886090413531E+03   -0.95864E-02   -0.49264E-02  3211   0.226E-01    0.754E-01
RMM:   6    -0.886086278608E+03    0.41349E-02   -0.53905E-03  2708   0.153E-01    0.530E-01
RMM:   7    -0.886081452307E+03    0.48263E-02   -0.30532E-02  3060   0.181E-01    0.240E-01
RMM:   8    -0.886081535658E+03   -0.83351E-04   -0.17517E-03  2379   0.108E-01    0.214E-01
RMM:   9    -0.886081480800E+03    0.54858E-04   -0.19874E-03  2653   0.430E-02    0.186E-01
RMM:  10    -0.886081042123E+03    0.43868E-03   -0.18443E-03  2800   0.571E-02    0.131E-01
RMM:  11    -0.886080918858E+03    0.12327E-03   -0.36595E-03  2901   0.656E-02    0.565E-02
RMM:  12    -0.886081014946E+03   -0.96088E-04   -0.77432E-04  1853   0.600E-02
   3 F= -.90705714E+03 E0= -.90705714E+03  d E =-.194063E-01  mag=     2.0000
       N       E                     dE             d eps       ncg     rms          rms(c)
DAV:   1    -0.886080934506E+03   -0.15648E-04   -0.35772E-01  2800   0.812E-01    0.196E-01
RMM:   2    -0.886081827211E+03   -0.89270E-03   -0.18568E-02  2803   0.288E-01    0.282E-01
RMM:   3    -0.886082243718E+03   -0.41651E-03   -0.43610E-03  3046   0.848E-02    0.276E-01
RMM:   4    -0.886082290031E+03   -0.46313E-04   -0.93520E-04  2127   0.505E-02
   4 F= -.90705782E+03 E0= -.90705782E+03  d E =-.200808E-01  mag=     2.0000
       N       E                     dE             d eps       ncg     rms          rms(c)
DAV:   1    -0.886082627795E+03   -0.38408E-03   -0.23689E-02  3024   0.233E-01    0.205E-01
RMM:   2    -0.886082434883E+03    0.19291E-03   -0.23309E-03  2578   0.977E-02    0.113E-01
RMM:   3    -0.886082347399E+03    0.87484E-04   -0.16578E-03  2367   0.564E-02    0.749E-02
RMM:   4    -0.886082411927E+03   -0.64528E-04   -0.54522E-04  1822   0.443E-02
   5 F= -.90705807E+03 E0= -.90705807E+03  d E =-.203353E-01  mag=     2.0000
       N       E                     dE             d eps       ncg     rms          rms(c)
DAV:   1    -0.886081876340E+03    0.47106E-03   -0.53853E-02  2640   0.320E-01    0.692E-02
RMM:   2    -0.886082040774E+03   -0.16443E-03   -0.34939E-03  2779   0.117E-01    0.842E-02
RMM:   3    -0.886082089522E+03   -0.48748E-04   -0.52155E-04  1789   0.377E-02
   6 F= -.90705798E+03 E0= -.90705798E+03  d E =-.202469E-01  mag=     2.0000
       N       E                     dE             d eps       ncg     rms          rms(c)
DAV:   1    -0.886082286258E+03   -0.24548E-03   -0.20220E-02  2800   0.198E-01    0.681E-02
RMM:   2    -0.886082361524E+03   -0.75266E-04   -0.11684E-03  2300   0.705E-02    0.348E-02
RMM:   3    -0.886082400601E+03   -0.39077E-04   -0.26233E-04  1458   0.304E-02
   7 F= -.90705815E+03 E0= -.90705815E+03  d E =-.204135E-01  mag=     2.0000
       N       E                     dE             d eps       ncg     rms          rms(c)
DAV:   1    -0.886082317439E+03    0.44085E-04   -0.46786E-03  2944   0.972E-02    0.271E-02
RMM:   2    -0.886082341183E+03   -0.23745E-04   -0.21064E-04  1424   0.332E-02
   8 F= -.90705816E+03 E0= -.90705816E+03  d E =-.204250E-01  mag=     2.0000
       N       E                     dE             d eps       ncg     rms          rms(c)
DAV:   1    -0.886082442605E+03   -0.12517E-03   -0.20706E-03  2880   0.644E-02    0.205E-02
RMM:   2    -0.886082470741E+03   -0.28136E-04   -0.93806E-05  1276   0.213E-02
   9 F= -.90705824E+03 E0= -.90705824E+03  d E =-.205076E-01  mag=     2.0000
       N       E                     dE             d eps       ncg     rms          rms(c)
DAV:   1    -0.886083635163E+03   -0.11926E-02   -0.24836E-01  2432   0.644E-01    0.129E-01
RMM:   2    -0.886084519866E+03   -0.88470E-03   -0.10517E-02  2964   0.196E-01    0.152E-01
RMM:   3    -0.886084662557E+03   -0.14269E-03   -0.15537E-03  2464   0.532E-02    0.149E-01
RMM:   4    -0.886084649627E+03    0.12930E-04   -0.38582E-04  1662   0.400E-02
  10 F= -.90706049E+03 E0= -.90706049E+03  d E =-.225084E-02  mag=     2.0000
       N       E                     dE             d eps       ncg     rms          rms(c)
DAV:   1    -0.886084916399E+03   -0.25384E-03   -0.14180E-01  2752   0.492E-01    0.141E-01
RMM:   2    -0.886085265981E+03   -0.34958E-03   -0.69483E-03  2982   0.152E-01    0.153E-01
RMM:   3    -0.886085368446E+03   -0.10247E-03   -0.13156E-03  2391   0.467E-02    0.148E-01
RMM:   4    -0.886085431297E+03   -0.62851E-04   -0.41888E-04  1613   0.390E-02
  11 F= -.90706133E+03 E0= -.90706133E+03  d E =-.308837E-02  mag=     2.0000
       N       E                     dE             d eps       ncg     rms          rms(c)
DAV:   1    -0.886086266166E+03   -0.89772E-03   -0.14770E-01  2464   0.512E-01    0.124E-01
RMM:   2    -0.886086773038E+03   -0.50687E-03   -0.75006E-03  2985   0.163E-01    0.141E-01
RMM:   3    -0.886086903575E+03   -0.13054E-03   -0.14217E-03  2577   0.476E-02    0.135E-01
RMM:   4    -0.886086941685E+03   -0.38110E-04   -0.57655E-04  1839   0.430E-02
  12 F= -.90706257E+03 E0= -.90706257E+03  d E =-.123962E-02  mag=     2.0000
       N       E                     dE             d eps       ncg     rms          rms(c)
DAV:   1    -0.886087380721E+03   -0.47715E-03   -0.10471E-01  2864   0.435E-01    0.112E-01
RMM:   2    -0.886087515693E+03   -0.13497E-03   -0.59457E-03  2964   0.142E-01    0.132E-01
RMM:   3    -0.886087628633E+03   -0.11294E-03   -0.14258E-03  2606   0.458E-02    0.121E-01
RMM:   4    -0.886087701122E+03   -0.72490E-04   -0.45492E-04  1659   0.388E-02
  13 F= -.90706310E+03 E0= -.90706310E+03  d E =-.176782E-02  mag=     2.0000
       N       E                     dE             d eps       ncg     rms          rms(c)
DAV:   1    -0.886087577127E+03    0.51506E-04   -0.17515E-01  2672   0.535E-01    0.146E-01
RMM:   2    -0.886088177439E+03   -0.60031E-03   -0.82962E-03  3026   0.161E-01    0.151E-01
RMM:   3    -0.886088294145E+03   -0.11671E-03   -0.13973E-03  2511   0.469E-02    0.141E-01
RMM:   4    -0.886088359988E+03   -0.65843E-04   -0.83643E-04  2019   0.467E-02
  14 F= -.90706375E+03 E0= -.90706375E+03  d E =-.653070E-03  mag=     2.0000
       N       E                     dE             d eps       ncg     rms          rms(c)
DAV:   1    -0.886088691007E+03   -0.39686E-03   -0.28551E-03  3984   0.728E-02    0.712E-02
RMM:   2    -0.886088515395E+03    0.17561E-03   -0.89935E-04  2013   0.420E-02    0.411E-02
RMM:   3    -0.886088548424E+03   -0.33029E-04   -0.76234E-04  1929   0.397E-02
  15 F= -.90706394E+03 E0= -.90706394E+03  d E =-.841723E-03  mag=     2.0000
       N       E                     dE             d eps       ncg     rms          rms(c)
DAV:   1    -0.886088524735E+03   -0.93402E-05   -0.77285E-03  3200   0.118E-01    0.344E-02
RMM:   2    -0.886088557884E+03   -0.33149E-04   -0.28541E-04  1479   0.350E-02
  16 F= -.90706395E+03 E0= -.90706395E+03  d E =-.852362E-03  mag=     2.0000
       N       E                     dE             d eps       ncg     rms          rms(c)
DAV:   1    -0.886088614722E+03   -0.89987E-04   -0.34445E-03  2944   0.768E-02    0.226E-02
RMM:   2    -0.886088644418E+03   -0.29696E-04   -0.12231E-04  1243   0.222E-02
  17 F= -.90706404E+03 E0= -.90706404E+03  d E =-.938114E-03  mag=     2.0000
       N       E                     dE             d eps       ncg     rms          rms(c)
DAV:   1    -0.886088659974E+03   -0.45252E-04   -0.18457E-04  1744   0.227E-02    0.178E-02
RMM:   2    -0.886088683793E+03   -0.23819E-04   -0.50821E-05  1199   0.144E-02
  18 F= -.90706408E+03 E0= -.90706408E+03  d E =-.977655E-03  mag=     2.0000
       N       E                     dE             d eps       ncg     rms          rms(c)
DAV:   1    -0.886088704314E+03   -0.44339E-04   -0.12152E-04  1568   0.140E-02    0.164E-02
RMM:   2    -0.886088727477E+03   -0.23163E-04   -0.43600E-05  1165   0.123E-02
  19 F= -.90706412E+03 E0= -.90706412E+03  d E =-.102121E-02  mag=     2.0000
       N       E                     dE             d eps       ncg     rms          rms(c)
DAV:   1    -0.886088696947E+03    0.73672E-05   -0.56809E-02  2432   0.303E-01    0.590E-02
RMM:   2    -0.886088938931E+03   -0.24198E-03   -0.26588E-03  2747   0.990E-02    0.434E-02
RMM:   3    -0.886088985476E+03   -0.46545E-04   -0.37620E-04  1453   0.311E-02
  20 F= -.90706452E+03 E0= -.90706452E+03  d E =-.396329E-03  mag=     2.0000
