 vasp.5.3.5 31Mar14 (build May 27 2014 14:39:49) gamma-only                     
  
 executed on           LinuxIFORT date 2020.11.24  15:37:38
 running on   96 total cores
 distrk:  each k-point on   96 cores,    1 groups
 distr:  one band on NCORES_PER_BAND=   6 cores,   16 groups


--------------------------------------------------------------------------------------------------------


 INCAR:
 POTCAR:    PAW_PBE Ce 23Dec2003                  
 POTCAR:    PAW_PBE O 08Apr2002                   
 POTCAR:    PAW_PBE Pt 04Feb2005                  
 POTCAR:    PAW_PBE O 08Apr2002                   
 POTCAR:    PAW_PBE C 08Apr2002                   
 POTCAR:    PAW_PBE Ce 23Dec2003                  
   VRHFIN =Ce : [core= Kr 4d10]                                                 
   LEXCH  = PE                                                                  
   EATOM  =  1063.0861 eV,   78.1346 Ry                                         
                                                                                
   TITEL  = PAW_PBE Ce 23Dec2003                                                
   LULTRA =        F    use ultrasoft PP ?                                      
   IUNSCR =        1    unscreen: 0-lin 1-nonlin 2-no                           
   RPACOR =    1.800    partial core radius                                     
   POMASS =  140.115; ZVAL   =   12.000    mass and valenz                      
   RCORE  =    2.700    outmost cutoff radius                                   
   RWIGS  =    2.500; RWIGS  =    1.323    wigner-seitz radius (au A)           
   ENMAX  =  273.042; ENMIN  =  204.781 eV                                      
   RCLOC  =    1.810    cutoff for local pot                                    
   LCOR   =        T    correct aug charges                                     
   LPAW   =        T    paw PP                                                  
   EAUG   =  580.196                                                            
   DEXC   =    0.000                                                            
   RMAX   =    2.749    core radius for proj-oper                               
   RAUG   =    1.300    factor for augmentation sphere                          
   RDEP   =    2.810    radius for radial grids                                 
   RDEPT  =    2.162    core radius for aug-charge                              
                                                                                
   Atomic configuration                                                         
   14 entries                                                                   
     n  l   j            E        occ.                                          
     1  0  0.50    -40258.9816   2.0000                                         
     2  0  0.50     -6445.4884   2.0000                                         
     2  1  1.50     -5771.7470   6.0000                                         
     3  0  0.50     -1387.9739   2.0000                                         
     3  1  1.50     -1173.8158   6.0000                                         
     3  2  2.50      -869.9108  10.0000                                         
     4  0  0.50      -280.8706   2.0000                                         
     4  1  1.50      -210.9815   6.0000                                         
     4  2  2.50      -110.4558  10.0000                                         
     5  0  0.50       -40.5819   2.0000                                         
     6  0  0.50        -3.7444   2.0000                                         
     5  1  1.50       -23.2188   6.0000                                         
     5  2  2.50        -3.0598   1.0000                                         
     4  3  2.50        -5.3970   1.0000                                         
   Description                                                                  
     l       E           TYP  RCUT    TYP  RCUT                                 
     0    -40.5819164     23  1.500                                             
     0     -3.7443793     23  2.300                                             
     1    -23.2188445     23  2.000                                             
     1     40.8174780     23  2.300                                             
     2     -3.0597556     23  2.500                                             
     2     13.6058260     23  2.500                                             
     3     -5.3970469     23  2.700                                             
     3     -5.8505052     23  2.700                                             
  local pseudopotential read in
  partial core-charges read in
  partial kinetic energy density read in
  atomic valenz-charges read in
  non local Contribution for L=           0  read in
    real space projection operators read in
  non local Contribution for L=           0  read in
    real space projection operators read in
  non local Contribution for L=           1  read in
    real space projection operators read in
  non local Contribution for L=           1  read in
    real space projection operators read in
  non local Contribution for L=           2  read in
    real space projection operators read in
  non local Contribution for L=           2  read in
    real space projection operators read in
  non local Contribution for L=           3  read in
    real space projection operators read in
  non local Contribution for L=           3  read in
    real space projection operators read in
    PAW grid and wavefunctions read in
 
   number of l-projection  operators is LMAX  =           8
   number of lm-projection operators is LMMAX =          32
 
 POTCAR:    PAW_PBE O 08Apr2002                   
   VRHFIN =O: s2p4                                                              
   LEXCH  = PE                                                                  
   EATOM  =   432.3788 eV,   31.7789 Ry                                         
                                                                                
   TITEL  = PAW_PBE O 08Apr2002                                                 
   LULTRA =        F    use ultrasoft PP ?                                      
   IUNSCR =        1    unscreen: 0-lin 1-nonlin 2-no                           
   RPACOR =    1.200    partial core radius                                     
   POMASS =   16.000; ZVAL   =    6.000    mass and valenz                      
   RCORE  =    1.520    outmost cutoff radius                                   
   RWIGS  =    1.550; RWIGS  =    0.820    wigner-seitz radius (au A)           
   ENMAX  =  400.000; ENMIN  =  300.000 eV                                      
   ICORE  =        2    local potential                                         
   LCOR   =        T    correct aug charges                                     
   LPAW   =        T    paw PP                                                  
   EAUG   =  605.392                                                            
   DEXC   =    0.000                                                            
   RMAX   =    1.553    core radius for proj-oper                               
   RAUG   =    1.300    factor for augmentation sphere                          
   RDEP   =    1.550    radius for radial grids                                 
   RDEPT  =    1.329    core radius for aug-charge                              
                                                                                
   Atomic configuration                                                         
    4 entries                                                                   
     n  l   j            E        occ.                                          
     1  0  0.50      -514.6923   2.0000                                         
     2  0  0.50       -23.9615   2.0000                                         
     2  1  0.50        -9.0305   4.0000                                         
     3  2  1.50        -9.5241   0.0000                                         
   Description                                                                  
     l       E           TYP  RCUT    TYP  RCUT                                 
     0    -23.9615318     23  1.200                                             
     0     -9.5240782     23  1.200                                             
     1     -9.0304911     23  1.520                                             
     1      8.1634956     23  1.520                                             
     2     -9.5240782      7  1.500                                             
  local pseudopotential read in
  partial core-charges read in
  partial kinetic energy density read in
  kinetic energy density of atom read in
  atomic valenz-charges read in
  non local Contribution for L=           0  read in
    real space projection operators read in
  non local Contribution for L=           0  read in
    real space projection operators read in
  non local Contribution for L=           1  read in
    real space projection operators read in
  non local Contribution for L=           1  read in
    real space projection operators read in
    PAW grid and wavefunctions read in
 
   number of l-projection  operators is LMAX  =           4
   number of lm-projection operators is LMMAX =           8
 
 POTCAR:    PAW_PBE Pt 04Feb2005                  
   VRHFIN =Pt: s1d9                                                             
   LEXCH  = PE                                                                  
   EATOM  =   729.1176 eV,   53.5886 Ry                                         
                                                                                
   TITEL  = PAW_PBE Pt 04Feb2005                                                
   LULTRA =        F    use ultrasoft PP ?                                      
   IUNSCR =        1    unscreen: 0-lin 1-nonlin 2-no                           
   RPACOR =    2.330    partial core radius                                     
   POMASS =  195.080; ZVAL   =   10.000    mass and valenz                      
   RCORE  =    2.600    outmost cutoff radius                                   
   RWIGS  =    2.750; RWIGS  =    1.455    wigner-seitz radius (au A)           
   ENMAX  =  230.283; ENMIN  =  172.712 eV                                      
   ICORE  =        3    local potential                                         
   LCOR   =        T    correct aug charges                                     
   LPAW   =        T    paw PP                                                  
   EAUG   =  358.966                                                            
   DEXC   =    0.000                                                            
   RMAX   =    2.658    core radius for proj-oper                               
   RAUG   =    1.300    factor for augmentation sphere                          
   RDEP   =    2.761    radius for radial grids                                 
   RDEPT  =    2.203    core radius for aug-charge                              
                                                                                
   Atomic configuration                                                         
   16 entries                                                                   
     n  l   j            E        occ.                                          
     1  0  0.50    -78401.1885   2.0000                                         
     2  0  0.50    -13770.7750   2.0000                                         
     2  1  1.50    -11931.0468   6.0000                                         
     3  0  0.50     -3234.7234   2.0000                                         
     3  1  1.50     -2699.2216   6.0000                                         
     3  2  2.50     -2119.5714  10.0000                                         
     4  0  0.50      -695.1528   2.0000                                         
     4  1  1.50      -519.6034   6.0000                                         
     4  2  2.50      -306.6786  10.0000                                         
     4  3  3.50       -70.1041  14.0000                                         
     5  0  0.50      -101.7747   2.0000                                         
     5  1  1.50       -55.9873   6.0000                                         
     5  2  2.50        -6.1423   9.0000                                         
     6  0  0.50        -5.6573   1.0000                                         
     6  1  1.50        -6.8029   0.0000                                         
     5  3  2.50        -1.3606   0.0000                                         
   Description                                                                  
     l       E           TYP  RCUT    TYP  RCUT                                 
     2     -6.1423404     23  2.500                                             
     2     -7.5029230     23  2.500                                             
     0     -5.6573207     23  2.500                                             
     0      0.7416693     23  2.500                                             
     1     -2.7211652     23  2.600                                             
     1     20.4087390     23  2.600                                             
     3     -1.3605826     23  2.500                                             
  local pseudopotential read in
  partial core-charges read in
  partial kinetic energy density read in
  atomic valenz-charges read in
  non local Contribution for L=           2  read in
    real space projection operators read in
  non local Contribution for L=           2  read in
    real space projection operators read in
  non local Contribution for L=           0  read in
    real space projection operators read in
  non local Contribution for L=           0  read in
    real space projection operators read in
  non local Contribution for L=           1  read in
    real space projection operators read in
  non local Contribution for L=           1  read in
    real space projection operators read in
    PAW grid and wavefunctions read in
 
   number of l-projection  operators is LMAX  =           6
   number of lm-projection operators is LMMAX =          18
 
 POTCAR:    PAW_PBE O 08Apr2002                   
   VRHFIN =O: s2p4                                                              
   LEXCH  = PE                                                                  
   EATOM  =   432.3788 eV,   31.7789 Ry                                         
                                                                                
   TITEL  = PAW_PBE O 08Apr2002                                                 
   LULTRA =        F    use ultrasoft PP ?                                      
   IUNSCR =        1    unscreen: 0-lin 1-nonlin 2-no                           
   RPACOR =    1.200    partial core radius                                     
   POMASS =   16.000; ZVAL   =    6.000    mass and valenz                      
   RCORE  =    1.520    outmost cutoff radius                                   
   RWIGS  =    1.550; RWIGS  =    0.820    wigner-seitz radius (au A)           
   ENMAX  =  400.000; ENMIN  =  300.000 eV                                      
   ICORE  =        2    local potential                                         
   LCOR   =        T    correct aug charges                                     
   LPAW   =        T    paw PP                                                  
   EAUG   =  605.392                                                            
   DEXC   =    0.000                                                            
   RMAX   =    1.553    core radius for proj-oper                               
   RAUG   =    1.300    factor for augmentation sphere                          
   RDEP   =    1.550    radius for radial grids                                 
   RDEPT  =    1.329    core radius for aug-charge                              
                                                                                
   Atomic configuration                                                         
    4 entries                                                                   
     n  l   j            E        occ.                                          
     1  0  0.50      -514.6923   2.0000                                         
     2  0  0.50       -23.9615   2.0000                                         
     2  1  0.50        -9.0305   4.0000                                         
     3  2  1.50        -9.5241   0.0000                                         
   Description                                                                  
     l       E           TYP  RCUT    TYP  RCUT                                 
     0    -23.9615318     23  1.200                                             
     0     -9.5240782     23  1.200                                             
     1     -9.0304911     23  1.520                                             
     1      8.1634956     23  1.520                                             
     2     -9.5240782      7  1.500                                             
  local pseudopotential read in
  partial core-charges read in
  partial kinetic energy density read in
  kinetic energy density of atom read in
  atomic valenz-charges read in
  non local Contribution for L=           0  read in
    real space projection operators read in
  non local Contribution for L=           0  read in
    real space projection operators read in
  non local Contribution for L=           1  read in
    real space projection operators read in
  non local Contribution for L=           1  read in
    real space projection operators read in
    PAW grid and wavefunctions read in
 
   number of l-projection  operators is LMAX  =           4
   number of lm-projection operators is LMMAX =           8
 
 POTCAR:    PAW_PBE C 08Apr2002                   
   VRHFIN =C: s2p2                                                              
   LEXCH  = PE                                                                  
   EATOM  =   147.1560 eV,   10.8157 Ry                                         
                                                                                
   TITEL  = PAW_PBE C 08Apr2002                                                 
   LULTRA =        F    use ultrasoft PP ?                                      
   IUNSCR =        1    unscreen: 0-lin 1-nonlin 2-no                           
   RPACOR =    1.200    partial core radius                                     
   POMASS =   12.011; ZVAL   =    4.000    mass and valenz                      
   RCORE  =    1.500    outmost cutoff radius                                   
   RWIGS  =    1.630; RWIGS  =    0.863    wigner-seitz radius (au A)           
   ENMAX  =  400.000; ENMIN  =  300.000 eV                                      
   ICORE  =        2    local potential                                         
   LCOR   =        T    correct aug charges                                     
   LPAW   =        T    paw PP                                                  
   EAUG   =  644.873                                                            
   DEXC   =    0.000                                                            
   RMAX   =    1.529    core radius for proj-oper                               
   RAUG   =    1.300    factor for augmentation sphere                          
   RDEP   =    1.501    radius for radial grids                                 
   RDEPT  =    1.300    core radius for aug-charge                              
                                                                                
   Atomic configuration                                                         
    4 entries                                                                   
     n  l   j            E        occ.                                          
     1  0  0.50      -273.3789   2.0000                                         
     2  0  0.50       -13.7508   2.0000                                         
     2  1  0.50        -5.2854   2.0000                                         
     3  2  1.50        -5.4423   0.0000                                         
   Description                                                                  
     l       E           TYP  RCUT    TYP  RCUT                                 
     0    -13.7508458     23  1.200                                             
     0     -8.2022199     23  1.200                                             
     1     -5.2854383     23  1.500                                             
     1     34.0145650     23  1.500                                             
     2     -5.4423304      7  1.500                                             
  local pseudopotential read in
  partial core-charges read in
  partial kinetic energy density read in
  atomic valenz-charges read in
  non local Contribution for L=           0  read in
    real space projection operators read in
  non local Contribution for L=           0  read in
    real space projection operators read in
  non local Contribution for L=           1  read in
    real space projection operators read in
  non local Contribution for L=           1  read in
    real space projection operators read in
    PAW grid and wavefunctions read in
 
   number of l-projection  operators is LMAX  =           4
   number of lm-projection operators is LMMAX =           8
 
 Optimization of the real space projectors (new method)

 maximal supplied QI-value         = 13.98
 optimisation between [QCUT,QGAM] = [ 10.21, 20.42] = [ 29.18,116.73] Ry 
 Optimized for a Real-space Cutoff    1.65 Angstroem

   l    n(q)    QCUT    max X(q) W(low)/X(q) W(high)/X(q)  e(spline) 
   0     10    10.208     8.553    0.18E-04    0.75E-05    0.12E-06
   0     10    10.208     8.106    0.26E-04    0.16E-04    0.24E-06
   1     10    10.208     4.160    0.93E-05    0.96E-06    0.75E-07
   1     10    10.208     3.597    0.23E-04    0.26E-04    0.15E-06
   2      9    10.208     8.183    0.11E-03    0.28E-03    0.51E-06
   2      9    10.208     6.077    0.74E-04    0.19E-03    0.37E-06
   3      9    10.208   116.013    0.19E-03    0.98E-05    0.18E-06
   3      9    10.208   108.937    0.19E-03    0.10E-04    0.18E-06
 Optimization of the real space projectors (new method)

 maximal supplied QI-value         = 24.76
 optimisation between [QCUT,QGAM] = [ 10.15, 20.30] = [ 28.85,115.39] Ry 
 Optimized for a Real-space Cutoff    1.51 Angstroem

   l    n(q)    QCUT    max X(q) W(low)/X(q) W(high)/X(q)  e(spline) 
   0      9    10.150    20.381    0.17E-03    0.18E-03    0.41E-06
   0      9    10.150    15.268    0.18E-03    0.20E-03    0.43E-06
   1      9    10.150     5.964    0.16E-03    0.20E-03    0.36E-06
   1      9    10.150     5.382    0.13E-03    0.16E-03    0.33E-06
 Optimization of the real space projectors (new method)

 maximal supplied QI-value         = 14.36
 optimisation between [QCUT,QGAM] = [ 10.20, 20.39] = [ 29.12,116.47] Ry 
 Optimized for a Real-space Cutoff    1.55 Angstroem

   l    n(q)    QCUT    max X(q) W(low)/X(q) W(high)/X(q)  e(spline) 
   2      9    10.197    66.195    0.14E-03    0.26E-03    0.16E-06
   2      9    10.197    64.643    0.14E-03    0.26E-03    0.16E-06
   0      9    10.197    95.520    0.52E-04    0.23E-04    0.61E-07
   0      9    10.197    63.403    0.50E-04    0.22E-04    0.58E-07
   1      9    10.197    19.961    0.18E-03    0.80E-04    0.90E-07
   1      9    10.197    13.289    0.15E-03    0.68E-04    0.78E-07
 Optimization of the real space projectors (new method)

 maximal supplied QI-value         = 24.76
 optimisation between [QCUT,QGAM] = [ 10.15, 20.30] = [ 28.85,115.39] Ry 
 Optimized for a Real-space Cutoff    1.51 Angstroem

   l    n(q)    QCUT    max X(q) W(low)/X(q) W(high)/X(q)  e(spline) 
   0      9    10.150    20.381    0.17E-03    0.18E-03    0.41E-06
   0      9    10.150    15.268    0.18E-03    0.20E-03    0.43E-06
   1      9    10.150     5.964    0.16E-03    0.20E-03    0.36E-06
   1      9    10.150     5.382    0.13E-03    0.16E-03    0.33E-06
 Optimization of the real space projectors (new method)

 maximal supplied QI-value         = 25.13
 optimisation between [QCUT,QGAM] = [ 10.05, 20.36] = [ 28.30,116.06] Ry 
 Optimized for a Real-space Cutoff    1.51 Angstroem

   l    n(q)    QCUT    max X(q) W(low)/X(q) W(high)/X(q)  e(spline) 
   0      9    10.053   115.676    0.19E-03    0.21E-03    0.38E-06
   0      9    10.053    87.132    0.19E-03    0.21E-03    0.38E-06
   1      9    10.053     4.429    0.87E-04    0.11E-03    0.39E-06
   1      9    10.053     2.733    0.59E-04    0.62E-04    0.43E-06
  PAW_PBE Ce 23Dec2003                  :
 energy of atom  1       EATOM=-1063.0861
 kinetic energy error for atom=    0.0451 (will be added to EATOM!!)
  PAW_PBE O 08Apr2002                   :
 energy of atom  2       EATOM= -432.3788
 kinetic energy error for atom=    0.1156 (will be added to EATOM!!)
  PAW_PBE Pt 04Feb2005                  :
 energy of atom  3       EATOM= -729.1176
 kinetic energy error for atom=    0.0056 (will be added to EATOM!!)
  PAW_PBE O 08Apr2002                   :
 energy of atom  4       EATOM= -432.3788
 kinetic energy error for atom=    0.1156 (will be added to EATOM!!)
  PAW_PBE C 08Apr2002                   :
 energy of atom  5       EATOM= -147.1560
 kinetic energy error for atom=    0.0288 (will be added to EATOM!!)
 
 
 POSCAR: CeO2-110-l3-p23:                        
  positions in direct lattice
  velocities in cartesian coordinates
 exchange correlation table for  LEXCH =        8
   RHO(1)=    0.500       N(1)  =     2000
   RHO(2)=  100.500       N(2)  =     4000

 VTST: version 3.1, (03/28/14)

 CHAIN: initializing optimizer
 
 OPT: Using VASP Conjugate-Gradient optimizer
 CHAIN: Read ICHAIN            0
 
 POSCAR: CeO2-110-l3-p23:                        
  positions in direct lattice
  velocities in cartesian coordinates
 


--------------------------------------------------------------------------------------------------------


 ion  position               nearest neighbor table
   1  0.771  0.167  0.000-  37 2.38  41 2.38  40 2.38  45 2.38  53 2.38  55 2.38
   2  0.771  0.500  0.000-  37 2.38  39 2.38  41 2.38  47 2.38  59 2.38  60 2.38
   3  0.271  0.167  0.000-  42 2.38  46 2.38  44 2.38  38 2.38  51 2.38  52 2.38
   4  0.771  0.833  0.000-  39 2.38  47 2.38  45 2.38  40 2.38  50 2.38  54 2.38
   5  0.271  0.500  0.000-  42 2.38  43 2.38  46 2.38  48 2.38  57 2.38  58 2.38
   6  0.271  0.833  0.000-  43 2.38  48 2.38  44 2.38  38 2.38  49 2.38  56 2.38
   7  0.521  0.000  0.079-  61 2.36  50 2.38  51 2.38  55 2.38  49 2.38  45 2.38  44 2.38  67 2.40

   8  0.521  0.667  0.079-  62 2.37  50 2.38  49 2.38  60 2.38  57 2.38  43 2.38  39 2.38  63 2.38

   9  0.021  0.000  0.079-  66 2.36  53 2.38  54 2.38  56 2.38  52 2.38  40 2.38  38 2.38  65 2.38

  10  0.521  0.333  0.079-  51 2.38  55 2.38  57 2.38  60 2.38  37 2.38  46 2.38  71 2.38  69 2.39

  11  0.021  0.333  0.079-  52 2.38  53 2.38  58 2.38  59 2.38  41 2.38  42 2.38  70 2.38  72 2.38

  12  0.021  0.667  0.079-  68 2.37  64 2.37  54 2.38  56 2.38  58 2.38  59 2.38  47 2.38  48 2.38

  13  0.771  0.168  0.158-  80 2.35  73 2.36  70 2.37  71 2.38  66 2.38  61 2.38  55 2.38  53 2.39

  14  0.771  0.834  0.157-  84 2.35  74 2.35  50 2.37  54 2.37  61 2.37  66 2.38  64 2.39  63 2.39

  15  0.271  0.168  0.158-  69 2.35  72 2.36  65 2.37  67 2.38  83 2.38  52 2.40  51 2.40  79 2.43

  16  0.771  0.498  0.158-  71 2.36  70 2.36  76 2.36  63 2.38  64 2.38  60 2.38  78 2.39  59 2.39

  17  0.271  0.499  0.157-  81 2.36  82 2.37  72 2.37  57 2.37  58 2.38  69 2.38  62 2.38  68 2.38

  18  0.272  0.833  0.157-  77 2.34  75 2.37  49 2.37  56 2.37  62 2.38  68 2.38  67 2.39  65 2.39

  19  0.019  0.667  0.232-  87 2.31  64 2.32  68 2.34  92 2.36  84 2.37  76 2.37  77 2.41  82 2.42

  20  0.523  0.666  0.234-  63 2.33  90 2.35  78 2.37  62 2.37  75 2.37  93 2.39  74 2.39  81 2.39

  21  0.020  0.333  0.236-  83 2.35  80 2.36  76 2.36  94 2.36  70 2.37  82 2.38  72 2.39  95 2.46

  22  0.022  0.002  0.233-  65 2.33  66 2.35  86 2.35  80 2.36  84 2.38  96 2.38  83 2.39  77 2.39

  23  0.522  0.001  0.234-  67 2.34  89 2.35  61 2.35  73 2.36  74 2.36  79 2.40  91 2.41  75 2.42

  24  0.522  0.334  0.237-  78 2.35  79 2.36  73 2.37  85 2.37  71 2.39  69 2.39  81 2.40  88 2.47

  25  0.773  0.499  0.316- 107 2.28 106 2.33  94 2.37  92 2.39  85 2.41  76 2.42  90 2.42  78 2.42

  26  0.772  0.165  0.317- 103 2.33  85 2.34  94 2.35 104 2.35  89 2.37  86 2.37  80 2.46  73 2.47

  27  0.267  0.504  0.312-  95 2.29  82 2.32  88 2.32  87 2.34  81 2.36  93 2.38 108 2.51
  28  0.270  0.832  0.312-  91 2.31  98 2.34  96 2.34  75 2.35  77 2.36  87 2.38  93 2.47 109 3.13

  29  0.273  0.168  0.320- 101 2.25 100 2.27  79 2.40  96 2.42  95 2.45  83 2.46  88 2.49  91 2.49

  30  0.773  0.837  0.314-  97 2.34  90 2.35 102 2.35  92 2.35  86 2.36  89 2.37  84 2.41  74 2.42

  31  0.022  0.001  0.384- 103 2.25 101 2.25  96 2.27  86 2.27 102 2.30  98 2.46
  32  0.524  0.000  0.387- 104 2.24 100 2.25  91 2.27  89 2.30  97 2.32  99 2.52
  33  0.012  0.672  0.384- 106 2.22  92 2.25 102 2.28 108 2.29  87 2.36  98 2.38 109 3.01
  34  0.537  0.672  0.386- 107 2.21  97 2.23  90 2.25  93 2.30  99 2.35 109 3.02
  35  0.017  0.327  0.391-  95 2.34  94 2.34 103 2.36 106 2.42 101 2.45
  36  0.530  0.325  0.393-  85 2.33  88 2.35 104 2.37 100 2.40 107 2.49 105 2.49
  37  0.646  0.333  0.000-   1 2.38   2 2.38  10 2.38
  38  0.146  0.000  0.000-   3 2.38   6 2.38   9 2.38
  39  0.646  0.667  0.000-   4 2.38   2 2.38   8 2.38
  40  0.896  0.000  0.000-   1 2.38   4 2.38   9 2.38
  41  0.896  0.333  0.000-   1 2.38   2 2.38  11 2.38
  42  0.146  0.333  0.000-   3 2.38   5 2.38  11 2.38
  43  0.396  0.667  0.000-   6 2.38   5 2.38   8 2.38
  44  0.396  0.000  0.000-   3 2.38   6 2.38   7 2.38
  45  0.646  0.000  0.000-   1 2.38   4 2.38   7 2.38
  46  0.396  0.333  0.000-   3 2.38   5 2.38  10 2.38
  47  0.896  0.667  0.000-   4 2.38   2 2.38  12 2.38
  48  0.146  0.667  0.000-   6 2.38   5 2.38  12 2.38
  49  0.396  0.833  0.079-  18 2.37   8 2.38   7 2.38   6 2.38
  50  0.646  0.833  0.079-  14 2.37   8 2.38   7 2.38   4 2.38
  51  0.396  0.167  0.079-  10 2.38   7 2.38   3 2.38  15 2.40
  52  0.146  0.167  0.079-  11 2.38   9 2.38   3 2.38  15 2.40
  53  0.896  0.167  0.079-  11 2.38   9 2.38   1 2.38  13 2.39
  54  0.896  0.833  0.079-  14 2.37  12 2.38   9 2.38   4 2.38
  55  0.646  0.167  0.079-  10 2.38   7 2.38   1 2.38  13 2.38
  56  0.146  0.833  0.079-  18 2.37  12 2.38   9 2.38   6 2.38
  57  0.396  0.500  0.079-  17 2.37  10 2.38   8 2.38   5 2.38
  58  0.146  0.500  0.079-  17 2.38  12 2.38  11 2.38   5 2.38
  59  0.896  0.500  0.079-  11 2.38  12 2.38   2 2.38  16 2.39
  60  0.646  0.500  0.079-   8 2.38  10 2.38   2 2.38  16 2.38
  61  0.646  0.001  0.157-  23 2.35   7 2.36  14 2.37  13 2.38
  62  0.396  0.666  0.157-   8 2.37  20 2.37  17 2.38  18 2.38
  63  0.646  0.666  0.157-  20 2.33   8 2.38  16 2.38  14 2.39
  64  0.895  0.666  0.156-  19 2.32  12 2.37  16 2.38  14 2.39
  65  0.147  0.002  0.157-  22 2.33  15 2.37   9 2.38  18 2.39
  66  0.896  0.001  0.156-  22 2.35   9 2.36  14 2.38  13 2.38
  67  0.396  0.002  0.158-  23 2.34  15 2.38  18 2.39   7 2.40
  68  0.147  0.666  0.156-  19 2.34  12 2.37  17 2.38  18 2.38
  69  0.396  0.332  0.158-  15 2.35  17 2.38  24 2.39  10 2.39
  70  0.896  0.334  0.157-  16 2.36  13 2.37  21 2.37  11 2.38
  71  0.645  0.334  0.158-  16 2.36  13 2.38  10 2.38  24 2.39
  72  0.146  0.333  0.157-  15 2.36  17 2.37  11 2.38  21 2.39
  73  0.645  0.167  0.235-  23 2.36  13 2.36  24 2.37  26 2.47
  74  0.646  0.835  0.234-  14 2.35  23 2.36  20 2.39  30 2.42
  75  0.396  0.830  0.235-  28 2.35  18 2.37  20 2.37  23 2.42
  76  0.897  0.499  0.235-  21 2.36  16 2.36  19 2.37  25 2.42
  77  0.147  0.834  0.234-  18 2.34  28 2.36  22 2.39  19 2.41
  78  0.645  0.498  0.236-  24 2.35  20 2.37  16 2.39  25 2.42
  79  0.396  0.169  0.240-  24 2.36  23 2.40  29 2.40  15 2.43
  80  0.897  0.167  0.235-  13 2.35  21 2.36  22 2.36  26 2.46
  81  0.394  0.500  0.235-  17 2.36  27 2.36  20 2.39  24 2.40
  82  0.147  0.498  0.235-  27 2.32  17 2.37  21 2.38  19 2.42
  83  0.147  0.170  0.237-  21 2.35  15 2.38  22 2.39  29 2.46
  84  0.897  0.835  0.233-  14 2.35  19 2.37  22 2.38  30 2.41
  85  0.648  0.329  0.315-  36 2.33  26 2.34  24 2.37  25 2.41
  86  0.898  0.001  0.311-  31 2.27  22 2.35  30 2.36  26 2.37
  87  0.143  0.667  0.308-  19 2.31  27 2.34  33 2.36  28 2.38
  88  0.396  0.347  0.320-  27 2.32  36 2.35  24 2.47  29 2.49
  89  0.646  0.001  0.312-  32 2.30  23 2.35  26 2.37  30 2.37
  90  0.650  0.671  0.311-  34 2.25  30 2.35  20 2.35  25 2.42
  91  0.398  0.990  0.315-  32 2.27  28 2.31  23 2.41  29 2.49
  92  0.893  0.670  0.310-  33 2.25  30 2.35  19 2.36  25 2.39
  93  0.404  0.662  0.315-  34 2.30  27 2.38  20 2.39  28 2.47
  94  0.895  0.331  0.314-  35 2.34  26 2.35  21 2.36  25 2.37
  95  0.148  0.342  0.317-  27 2.29  35 2.34  29 2.45  21 2.46
  96  0.148  0.997  0.311-  31 2.27  28 2.34  22 2.38  29 2.42
  97  0.642  0.835  0.389-  34 2.23  32 2.32  30 2.34
  98  0.151  0.828  0.391- 109 2.20  28 2.34  33 2.38  31 2.46
  99  0.401  0.822  0.406- 109 2.08  34 2.35  32 2.52
 100  0.404  0.157  0.391-  32 2.25  29 2.27  36 2.40
 101  0.146  0.155  0.391-  29 2.25  31 2.25  35 2.45
 102  0.904  0.839  0.389-  33 2.28  31 2.30  30 2.35
 103  0.902  0.156  0.392-  31 2.25  26 2.33  35 2.36
 104  0.646  0.153  0.394-  32 2.24  26 2.35  36 2.37
 105  0.420  0.495  0.430- 111 1.31  36 2.49
 106  0.909  0.508  0.389-  33 2.22  25 2.33  35 2.42
 107  0.642  0.510  0.388-  34 2.21  25 2.28  36 2.49
 108  0.168  0.547  0.402- 109 2.11  33 2.29  27 2.51
 109  0.274  0.693  0.420- 111 2.01  99 2.08 108 2.11  98 2.20  33 3.01  34 3.02  28 3.13
 110  0.343  0.559  0.510- 111 1.23
 111  0.358  0.566  0.461- 110 1.23 105 1.31 109 2.01
 

IMPORTANT INFORMATION: All symmetrisations will be switched off!
NOSYMM: (Re-)initialisation of all symmetry stuff for point group C_1.

 
 
 KPOINTS: CeO2-111-3x3-9layers         ! Comment  

Automatic generation of k-mesh.
Space group operators:
 irot       det(A)        alpha          n_x          n_y          n_z        tau_x        tau_y        tau_z
    1     1.000000     0.000000     1.000000     0.000000     0.000000     0.000000     0.000000     0.000000
 
 Subroutine IBZKPT returns following result:
 ===========================================
 
 Found      1 irreducible k-points:
 
 Following reciprocal coordinates:
            Coordinates               Weight
  0.000000  0.000000  0.000000      1.000000
 
 Following cartesian coordinates:
            Coordinates               Weight
  0.000000  0.000000  0.000000      1.000000
 


--------------------------------------------------------------------------------------------------------




 Dimension of arrays:
   k-points           NKPTS =      1   k-points in BZ     NKDIM =      1   number of bands    NBANDS=    592
   number of dos      NEDOS =    301   number of ions     NIONS =    111
   non local maximal  LDIM  =      8   non local SUM 2l+1 LMDIM =     32
   total plane-waves  NPLWV = 933120
   max r-space proj   IRMAX =   5592   max aug-charges    IRDMAX= 143303
   dimension x,y,z NGX =    72 NGY =   80 NGZ =  162
   dimension x,y,z NGXF=   144 NGYF=  160 NGZF=  324
   support grid    NGXF=   288 NGYF=  320 NGZF=  648
   ions per type =              36  72   1   1   1
 NGX,Y,Z   is equivalent  to a cutoff of  10.90, 11.42, 10.90 a.u.
 NGXF,Y,Z  is equivalent  to a cutoff of  21.80, 22.84, 21.80 a.u.


 I would recommend the setting:
   dimension x,y,z NGX =    72 NGY =   76 NGZ =  161
 SYSTEM =  unknown system                          
 POSCAR =  CeO2-110-l3-p23:                        

 Startparameter for this run:
   NWRITE =      2    write-flag & timer
   PREC   = accura    normal or accurate (medium, high low for compatibility)
   ISTART =      1    job   : 0-new  1-cont  2-samecut
   ICHARG =      0    charge: 1-file 2-atom 10-const
   ISPIN  =      2    spin polarized calculation?
   LNONCOLLINEAR =      F non collinear calculations
   LSORBIT =      F    spin-orbit coupling
   INIWAV =      1    electr: 0-lowe 1-rand  2-diag
   LASPH  =      T    aspherical Exc in radial PAW
   METAGGA=      F    non-selfconsistent MetaGGA calc.

 Electronic Relaxation 1
   ENCUT  =  400.0 eV  29.40 Ry    5.42 a.u.  17.91 18.99 40.29*2*pi/ulx,y,z
   ENINI  =  400.0     initial cutoff
   ENAUG  =  644.9 eV  augmentation charge cutoff
   NELM   =    100;   NELMIN=  2; NELMDL=  0     # of ELM steps 
   EDIFF  = 0.1E-03   stopping-criterion for ELM
   LREAL  =      T    real-space projection
   NLSPLINE    = F    spline interpolate recip. space projectors
   LCOMPAT=      F    compatible to vasp.4.4
   GGA_COMPAT  = T    GGA compatible to vasp.4.4-vasp.4.6
   LMAXPAW     = -100 max onsite density
   LMAXMIX     =    6 max onsite mixed and CHGCAR
   VOSKOWN=      0    Vosko Wilk Nusair interpolation
   ROPT   =   -0.00025  -0.00025  -0.00025  -0.00025
   ROPT   =   -0.00025
 Ionic relaxation
   EDIFFG = -.5E-01   stopping-criterion for IOM
   NSW    =     30    number of steps for IOM
   NBLOCK =      1;   KBLOCK =     30    inner block; outer block 
   IBRION =      2    ionic relax: 0-MD 1-quasi-New 2-CG
   NFREE  =      1    steps in history (QN), initial steepest desc. (CG)
   ISIF   =      2    stress and relaxation
   IWAVPR =     11    prediction:  0-non 1-charg 2-wave 3-comb
   ISYM   =      0    0-nonsym 1-usesym 2-fastsym
   LCORR  =      T    Harris-Foulkes like correction to forces

   POTIM  = 0.1000    time-step for ionic-motion
   TEIN   =    0.0    initial temperature
   TEBEG  =    0.0;   TEEND  =   0.0 temperature during run
   SMASS  =  -3.00    Nose mass-parameter (am)
   estimated Nose-frequenzy (Omega)   =  0.10E-29 period in steps =****** mass=  -0.276E-26a.u.
   SCALEE = 1.0000    scale energy and forces
   NPACO  =    256;   APACO  = 16.0  distance and # of slots for P.C.
   PSTRESS=    0.0 pullay stress

  Mass of Ions in am
   POMASS = 140.12 16.00195.08 16.00 12.01
  Ionic Valenz
   ZVAL   =  12.00  6.00 10.00  6.00  4.00
  Atomic Wigner-Seitz radii
   RWIGS  =  -1.00 -1.00 -1.00 -1.00 -1.00
  virtual crystal weights 
   VCA    =   1.00  1.00  1.00  1.00  1.00
   NELECT =     884.0000    total number of electrons
   NUPDOWN=      -1.0000    fix difference up-down

 DOS related values:
   EMIN   =  10.00;   EMAX   =-10.00  energy-range for DOS
   EFERMI =   0.00
   ISMEAR =     0;   SIGMA  =   0.05  broadening in eV -4-tet -1-fermi 0-gaus

 Electronic relaxation 2 (details)
   IALGO  =     68    algorithm
   LDIAG  =      T    sub-space diagonalisation (order eigenvalues)
   LSUBROT=      F    optimize rotation matrix (better conditioning)
   TURBO    =      0    0=normal 1=particle mesh
   IRESTART =      0    0=no restart 2=restart with 2 vectors
   NREBOOT  =      0    no. of reboots
   NMIN     =      0    reboot dimension
   EREF     =   0.00    reference energy to select bands
   IMIX   =      4    mixing-type and parameters
     AMIX     =   0.20;   BMIX     =  0.00
     AMIX_MAG =   0.80;   BMIX_MAG =  0.00
     AMIN     =   0.10
     WC   =   100.;   INIMIX=   1;  MIXPRE=   1;  MAXMIX= -45

 Intra band minimization:
   WEIMIN = 0.0010     energy-eigenvalue tresh-hold
   EBREAK =  0.42E-07  absolut break condition
   DEPER  =   0.30     relativ break condition  

   TIME   =   0.40     timestep for ELM

  volume/ion in A,a.u.               =      28.46       192.06
  Fermi-wavevector in a.u.,A,eV,Ry     =   1.070788  2.023496 15.600257  1.146587
  Thomas-Fermi vector in A             =   2.206508
 
 Write flags
   LWAVE  =      T    write WAVECAR
   LCHARG =      T    write CHGCAR
   LVTOT  =      F    write LOCPOT, total local potential
   LVHAR  =      F    write LOCPOT, Hartree potential only
   LELF   =      F    write electronic localiz. function (ELF)
   LORBIT =     11    0 simple, 1 ext, 2 COOP (PROOUT)


 Dipole corrections
   LMONO  =      F    monopole corrections only (constant potential shift)
   LDIPOL =      T    correct potential (dipole corrections)
   IDIPOL =      3    1-x, 2-y, 3-z, 4-all directions 
   EPSILON=  1.0000000 bulk dielectric constant

 LDA+U is selected, type is set to LDAUTYPE =  2
   angular momentum for each species LDAUL =     3   -1   -1   -1   -1
   U (eV)           for each species LDAUU =   4.5  0.0  0.0  0.0  0.0
   J (eV)           for each species LDAUJ =   0.0  0.0  0.0  0.0  0.0
 Exchange correlation treatment:
   GGA     =    --    GGA type
   LEXCH   =     8    internal setting for exchange type
   VOSKOWN=      0    Vosko Wilk Nusair interpolation
   LHFCALC =     F    Hartree Fock is set to
   LHFONE  =     F    Hartree Fock one center treatment
   AEXX    =    0.0000 exact exchange contribution

 Linear response parameters
   LEPSILON=     F    determine dielectric tensor
   LRPA    =     F    only Hartree local field effects (RPA)
   LNABLA  =     F    use nabla operator in PAW spheres
   LVEL    =     F    velocity operator in full k-point grid
   LINTERFAST=   F  fast interpolation
   KINTER  =     0    interpolate to denser k-point grid
   CSHIFT  =0.1000    complex shift for real part using Kramers Kronig
   OMEGAMAX=  -1.0    maximum frequency
   DEG_THRESHOLD= 0.2000000E-02 threshold for treating states as degnerate
   RTIME   =    0.100 relaxation time in fs

 Orbital magnetization related:
   ORBITALMAG=     F  switch on orbital magnetization
   LCHIMAG   =     F  perturbation theory with respect to B field
   DQ        =  0.001000  dq finite difference perturbation B field



--------------------------------------------------------------------------------------------------------


 conjugate gradient relaxation of ions
   using selective dynamics as specified on POSCAR
 charge density and potential will be updated during run
 spin polarized calculation
 RMM-DIIS sequential band-by-band and
  variant of blocked Davidson during initial phase
 perform sub-space diagonalisation
    before iterative eigenvector-optimisation
 modified Broyden-mixing scheme, WC =      100.0
 initial mixing is a Kerker type mixing with AMIX =  0.2000 and BMIX =      0.0010
 Hartree-type preconditioning will be used
 using additional bands          150
 real space projection scheme for non local part
 use partial core corrections
 calculate Harris-corrections to forces 
   (improved forces if not selfconsistent)
 use gradient corrections 
 use of overlap-Matrix (Vanderbilt PP)
 Gauss-broadening in eV      SIGMA  =   0.05


--------------------------------------------------------------------------------------------------------


  energy-cutoff  :      400.00
  volume of cell :     3159.12
      direct lattice vectors                 reciprocal lattice vectors
    10.980000000  0.000000000  0.000000000     0.091074681  0.000000000  0.000000000
     0.000000000 11.646048686  0.000000000     0.000000000  0.085866033  0.000000000
     0.000000000  0.000000000 24.705040572     0.000000000  0.000000000  0.040477570

  length of vectors
    10.980000000 11.646048686 24.705040572     0.091074681  0.085866033  0.040477570


 
 old parameters found on file WAVECAR:
  energy-cutoff  :      400.00
  volume of cell :     3159.12
      direct lattice vectors                 reciprocal lattice vectors
    10.980000000  0.000000000  0.000000000     0.091074681  0.000000000  0.000000000
     0.000000000 11.646048686  0.000000000     0.000000000  0.085866033  0.000000000
     0.000000000  0.000000000 24.705040572     0.000000000  0.000000000  0.040477570

  length of vectors

 
 k-points in units of 2pi/SCALE and weight: CeO2-111-3x3-9layers         ! Comment  
   0.00000000  0.00000000  0.00000000       1.000
 
 k-points in reciprocal lattice and weights: CeO2-111-3x3-9layers         ! Comment  
   0.00000000  0.00000000  0.00000000       1.000
 
 position of ions in fractional coordinates (direct lattice) 
   0.77120274  0.16666677  0.00000000
   0.77120274  0.50000010  0.00000000
   0.27120274  0.16666677  0.00000000
   0.77120274  0.83333343  0.00000000
   0.27120274  0.50000010  0.00000000
   0.27120274  0.83333343  0.00000000
   0.52120274  0.00000010  0.07856729
   0.52120274  0.66666677  0.07856729
   0.02120274  0.00000010  0.07856729
   0.52120274  0.33333343  0.07856729
   0.02120274  0.33333343  0.07856729
   0.02120274  0.66666677  0.07856729
   0.77073583  0.16763870  0.15752563
   0.77087305  0.83440808  0.15680269
   0.27112896  0.16839753  0.15830578
   0.77081505  0.49836649  0.15754859
   0.27145721  0.49892536  0.15694599
   0.27154561  0.83335931  0.15680433
   0.01872940  0.66715722  0.23236820
   0.52335188  0.66575046  0.23390584
   0.01983965  0.33286213  0.23580697
   0.02186176  0.00220294  0.23307239
   0.52177211  0.00081585  0.23427633
   0.52199270  0.33350573  0.23714683
   0.77321844  0.49915117  0.31629792
   0.77188569  0.16542144  0.31745800
   0.26679895  0.50396160  0.31238314
   0.27030783  0.83173741  0.31207068
   0.27266210  0.16791730  0.31964837
   0.77275934  0.83650785  0.31387100
   0.02247124  0.00109906  0.38442970
   0.52367966  0.00008637  0.38706639
   0.01242705  0.67201141  0.38409159
   0.53708163  0.67203425  0.38642838
   0.01661951  0.32688995  0.39135866
   0.53012538  0.32469967  0.39304055
   0.64620274  0.33333343  0.00000000
   0.14620274  0.00000010  0.00000000
   0.64620274  0.66666677  0.00000000
   0.89620274  0.00000010  0.00000000
   0.89620274  0.33333343  0.00000000
   0.14620274  0.33333343  0.00000000
   0.39620274  0.66666677  0.00000000
   0.39620274  0.00000010  0.00000000
   0.64620274  0.00000010  0.00000000
   0.39620274  0.33333343  0.00000000
   0.89620274  0.66666677  0.00000000
   0.14620274  0.66666677  0.00000000
   0.39620274  0.83333343  0.07856729
   0.64620274  0.83333343  0.07856729
   0.39620274  0.16666677  0.07856729
   0.14620274  0.16666677  0.07856729
   0.89620274  0.16666677  0.07856729
   0.89620274  0.83333343  0.07856729
   0.64620274  0.16666677  0.07856729
   0.14620274  0.83333343  0.07856729
   0.39620274  0.50000010  0.07856729
   0.14620274  0.50000010  0.07856729
   0.89620274  0.50000010  0.07856729
   0.64620274  0.50000010  0.07856729
   0.64583752  0.00065650  0.15655879
   0.39607967  0.66608045  0.15654025
   0.64642736  0.66570213  0.15711203
   0.89496890  0.66615390  0.15625754
   0.14739095  0.00213757  0.15679057
   0.89597499  0.00100036  0.15626792
   0.39580905  0.00163804  0.15799781
   0.14670216  0.66615240  0.15643103
   0.39622029  0.33225007  0.15800492
   0.89604967  0.33355194  0.15708882
   0.64541378  0.33395024  0.15757996
   0.14640622  0.33294305  0.15708366
   0.64485300  0.16665317  0.23483784
   0.64554208  0.83542201  0.23387298
   0.39598726  0.83035120  0.23496574
   0.89666402  0.49899717  0.23512663
   0.14740089  0.83447838  0.23367496
   0.64519379  0.49836105  0.23637102
   0.39639222  0.16886789  0.23954275
   0.89651034  0.16723039  0.23470926
   0.39409387  0.50017860  0.23541108
   0.14693456  0.49844170  0.23507350
   0.14650403  0.17007907  0.23716905
   0.89720922  0.83522298  0.23337646
   0.64832749  0.32853535  0.31475711
   0.89839714  0.00083668  0.31071844
   0.14266558  0.66711973  0.30807136
   0.39601632  0.34694492  0.31989758
   0.64590581  0.00087368  0.31158681
   0.65047028  0.67143576  0.31053582
   0.39761309  0.98978543  0.31450745
   0.89348185  0.67005196  0.30989085
   0.40408274  0.66153720  0.31463315
   0.89475407  0.33076667  0.31363346
   0.14813956  0.34240200  0.31737773
   0.14823643  0.99691458  0.31145271
   0.64215594  0.83548525  0.38882008
   0.15118111  0.82848717  0.39050228
   0.40061916  0.82156673  0.40595947
   0.40354687  0.15661232  0.39067444
   0.14581381  0.15525729  0.39095189
   0.90354274  0.83857518  0.38913766
   0.90172563  0.15601809  0.39191589
   0.64580968  0.15297043  0.39427570
   0.41984943  0.49461717  0.42996196
   0.90923593  0.50793877  0.38875881
   0.64186487  0.51002409  0.38752383
   0.16795813  0.54699668  0.40155794
   0.27354687  0.69294062  0.42036549
   0.34250730  0.55891322  0.50978167
   0.35779367  0.56594302  0.46062187
 
 position of ions in cartesian coordinates  (Angst):
   8.46780604  1.94100927  0.00000000
   8.46780604  5.82302550  0.00000000
   2.97780604  1.94100927  0.00000000
   8.46780604  9.70504173  0.00000000
   2.97780604  5.82302550  0.00000000
   2.97780604  9.70504173  0.00000000
   5.72280604  0.00000116  1.94100811
   5.72280604  7.76403361  1.94100811
   0.23280604  0.00000116  1.94100811
   5.72280604  3.88201739  1.94100811
   0.23280604  3.88201739  1.94100811
   0.23280604  7.76403361  1.94100811
   8.46267943  1.95232843  3.89167713
   8.46418608  9.71755716  3.87381693
   2.97699597  1.96116585  3.91095081
   8.46354923  5.80400040  3.89224427
   2.98060014  5.81050904  3.87735697
   2.98157082  9.70534308  3.87385729
   0.20564884  7.76974542  5.74066588
   5.74640369  7.75336232  5.77865322
   0.21783938  3.87652862  5.82562084
   0.24004208  0.02565554  5.75806294
   5.72905774  0.00950144  5.78780625
   5.73147981  3.88402399  5.85872214
   8.48993843  5.81313881  7.81415296
   8.47530491  1.92650612  7.84281286
   2.92945245  5.86916136  7.71743826
   2.96797997  9.68645439  7.70971888
   2.99382988  1.95557306  7.89692593
   8.48489759  9.74201120  7.75419583
   0.24673419  0.01279973  9.49735126
   5.75000263  0.00100582  9.56249084
   0.13644903  7.82627755  9.48899830
   5.89715632  7.82654355  9.54672872
   0.18248224  3.80697622  9.66853164
   5.82077669  3.78146816  9.71008273
   7.09530604  3.88201739  0.00000000
   1.60530604  0.00000116  0.00000000
   7.09530604  7.76403361  0.00000000
   9.84030604  0.00000116  0.00000000
   9.84030604  3.88201739  0.00000000
   1.60530604  3.88201739  0.00000000
   4.35030604  7.76403361  0.00000000
   4.35030604  0.00000116  0.00000000
   7.09530604  0.00000116  0.00000000
   4.35030604  3.88201739  0.00000000
   9.84030604  7.76403361  0.00000000
   1.60530604  7.76403361  0.00000000
   4.35030604  9.70504173  1.94100811
   7.09530604  9.70504173  1.94100811
   4.35030604  1.94100927  1.94100811
   1.60530604  1.94100927  1.94100811
   9.84030604  1.94100927  1.94100811
   9.84030604  9.70504173  1.94100811
   7.09530604  1.94100927  1.94100811
   1.60530604  9.70504173  1.94100811
   4.35030604  5.82302550  1.94100811
   1.60530604  5.82302550  1.94100811
   9.84030604  5.82302550  1.94100811
   7.09530604  5.82302550  1.94100811
   7.09129595  0.00764568  3.86779134
   4.34895474  7.75720540  3.86733334
   7.09777239  7.75279942  3.88145898
   9.82675853  7.75806080  3.86034880
   1.61835265  0.02489424  3.87351740
   9.83780538  0.01165021  3.86060539
   4.34598339  0.01907675  3.90334233
   1.61078976  7.75804327  3.86463504
   4.35049876  3.86940046  3.90351798
   9.83862539  3.88456217  3.88088556
   7.08664334  3.88920077  3.89301925
   1.60754027  3.87747102  3.88075828
   7.08048597  1.94085095  5.80167837
   7.08805199  9.72936538  5.77784135
   4.34794011  9.67031051  5.80483804
   9.84537093  5.81134529  5.80881287
   1.61846172  9.71837589  5.77294941
   7.08422784  5.80393701  5.83955553
   4.35238653  1.96664372  5.91791340
   9.84368349  1.94757321  5.79850179
   4.32715066  5.82510434  5.81584021
   1.61334142  5.80487628  5.80750046
   1.60861427  1.98074910  5.85927100
   9.85135722  9.72704746  5.76557497
   7.11863583  3.82613870  7.77608719
   9.86440065  0.00974403  7.67631178
   1.56646806  7.76930881  7.61091548
   4.34825923  4.04053738  7.90308275
   7.09204579  0.01017487  7.69776474
   7.14216372  7.81957349  7.67180004
   4.36579171 11.52708936  7.76991925
   9.81043076  7.80345773  7.65586611
   4.43682847  7.70429444  7.77302480
   9.82439969  3.85212473  7.74832727
   1.62657241  3.98763038  7.84082964
   1.62763604 11.61011572  7.69445178
   7.05087220  9.73010188  9.60581595
   1.65996854  9.64860186  9.64737472
   4.39879838  9.56800618 10.02924518
   4.43094459  1.82391476  9.65162789
   1.60103564  1.80813392  9.65848227
   9.92089925  9.76608734  9.61366170
   9.90094741  1.81699430  9.68229785
   7.09099026  1.78150109  9.74059723
   4.60994678  5.76033563 10.62222774
   9.98341050  5.91547962  9.60430209
   7.04767628  5.93976534  9.57379195
   1.84418030  6.37034997  9.92050511
   3.00354461  8.07002025 10.38514644
   3.76073016  6.50913063 12.59417696
   3.92857454  6.59099999 11.37968200
 


--------------------------------------------------------------------------------------------------------


 use parallel FFT for wavefunctions z direction half grid
 k-point  1 :   0.0000 0.0000 0.0000  plane waves:   28608

 maximum and minimum number of plane-waves per node :      4774     4761

 maximum number of plane-waves:     28608
 maximum index in each direction: 
   IXMAX=   17   IYMAX=   18   IZMAX=   40
   IXMIN=  -17   IYMIN=  -18   IZMIN=    0

 NGX is ok and might be reduce to  70
 NGY is ok and might be reduce to  74
 NGZ is ok and might be reduce to 162

 real space projection operators:
  total allocation   :      68093.83 KBytes
  max/ min on nodes  :      11579.41      11224.19


 parallel 3D FFT for wavefunctions:
    minimum data exchange during FFTs selected (reduces bandwidth)
 parallel 3D FFT for charge:
    minimum data exchange during FFTs selected (reduces bandwidth)


 total amount of memory used by VASP on root node    88916. kBytes
========================================================================

   base      :      30000. kBytes
   nonlr-proj:      13867. kBytes
   fftplans  :      14971. kBytes
   grid      :      23311. kBytes
   one-center:        933. kBytes
   wavefun   :       5834. kBytes
 
     INWAV:  cpu time    1.68: real time    1.72
 Broyden mixing: mesh for mixing (old mesh)
   NGX = 35   NGY = 37   NGZ = 81
  (NGX  =144   NGY  =160   NGZ  =324)
  gives a total of 104895 points

 charge density for first step will be calculated from the start-wavefunctions


--------------------------------------------------------------------------------------------------------


 Maximum index for non-local projection operator          910
 Maximum index for augmentation-charges         2959 (set IRDMAX)


--------------------------------------------------------------------------------------------------------


 initial charge from wavefunction
 First call to EWALD:  gamma=   0.121
 Maximum number of real-space cells 4x 3x 2
 Maximum number of reciprocal cells 2x 2x 4

 FEWALD executed in parallel
    FEWALD:  cpu time    0.01: real time    0.01


----------------------------------------- Iteration    1(   1)  ---------------------------------------


    POTLOK:  cpu time    0.22: real time    0.22
    SETDIJ:  cpu time    2.25: real time    2.25
     EDDAV:  cpu time    7.38: real time    7.41
       DOS:  cpu time    0.00: real time    0.00
    CHARGE:  cpu time    0.85: real time    0.85
    MIXING:  cpu time    0.01: real time    0.01
    --------------------------------------------
      LOOP:  cpu time   10.71: real time   10.74

 eigenvalue-minimisations  :  4208
 total energy-change (2. order) :-0.8860650E+03  (-0.7442556E-03)
 number of electron     883.9999993 magnetization       2.0000000
 augmentation part      -13.0896816 magnetization       1.6375255

 DIPCOR: dipole corrections for dipol
 direction  3 min pos   229,
 dipolmoment           0.000000      0.000000      1.119400 electrons x Angstroem
 Tr[quadrupol]    -19541.973570

 energy correction for charged system         0.000000 eV
 dipol+quadrupol energy correction           -0.035895 eV
 added-field ion interaction          2.442961 eV  (added to PSCEN)


 Broyden mixing:
  rms(total) = 0.10673E-01    rms(broyden)= 0.10660E-01
  rms(prec ) = 0.12069E-01
  weight for this iteration     100.00

 Free energy of the ion-electron system (eV)
  ---------------------------------------------------
  alpha Z        PSCENC =      2274.65799201
  Ewald energy   TEWEN  =    249969.23580489
  -Hartree energ DENC   =   -317929.23156617
  -exchange      EXHF   =         0.00000000
  -V(xc)+E(xc)   XCENC  =      2311.33298721
  PAW double counting   =     67340.01790650   -66482.53232396
  entropy T*S    EENTRO =        -0.00000000
  eigenvalues    EBANDS =     -9070.47480103
  atomic energy  EATOM  =     70700.92898532
  ---------------------------------------------------
  free energy    TOTEN  =      -886.06501523 eV

  energy without entropy =     -886.06501523  energy(sigma->0) =     -886.06501523


--------------------------------------------------------------------------------------------------------




----------------------------------------- Iteration    1(   2)  ---------------------------------------


    POTLOK:  cpu time    0.21: real time    0.21
    SETDIJ:  cpu time    2.30: real time    2.30
    EDDIAG:  cpu time    1.06: real time    1.07
  RMM-DIIS:  cpu time    3.62: real time    3.62
    ORTHCH:  cpu time    0.17: real time    0.18
       DOS:  cpu time    0.00: real time    0.00
    CHARGE:  cpu time    0.85: real time    0.85
    MIXING:  cpu time    0.01: real time    0.01
    --------------------------------------------
      LOOP:  cpu time    8.22: real time    8.25

 eigenvalue-minimisations  :  3016
 total energy-change (2. order) : 0.2769396E-03  (-0.5990742E-03)
 number of electron     883.9999993 magnetization       2.0000000
 augmentation part      -13.0935081 magnetization       1.6376508

 DIPCOR: dipole corrections for dipol
 direction  3 min pos   230,
 dipolmoment           0.000000      0.000000      1.086250 electrons x Angstroem
 Tr[quadrupol]    -19542.223866

 energy correction for charged system         0.000000 eV
 dipol+quadrupol energy correction           -0.033800 eV
 added-field ion interaction          6.565087 eV  (added to PSCEN)


 Broyden mixing:
  rms(total) = 0.11783E-01    rms(broyden)= 0.11777E-01
  rms(prec ) = 0.12603E-01
  weight for this iteration     100.00

 eigenvalues of (default mixing * dielectric matrix)
  average eigenvalue GAMMA=   0.4383
  0.4383

 Free energy of the ion-electron system (eV)
  ---------------------------------------------------
  alpha Z        PSCENC =      2278.78221257
  Ewald energy   TEWEN  =    249969.23580489
  -Hartree energ DENC   =   -317931.60213481
  -exchange      EXHF   =         0.00000000
  -V(xc)+E(xc)   XCENC  =      2311.33627881
  PAW double counting   =     67339.92157251   -66482.44212756
  entropy T*S    EENTRO =        -0.00000000
  eigenvalues    EBANDS =     -9072.22533002
  atomic energy  EATOM  =     70700.92898532
  ---------------------------------------------------
  free energy    TOTEN  =      -886.06473829 eV

  energy without entropy =     -886.06473829  energy(sigma->0) =     -886.06473829


--------------------------------------------------------------------------------------------------------




----------------------------------------- Iteration    1(   3)  ---------------------------------------


    POTLOK:  cpu time    0.21: real time    0.21
    SETDIJ:  cpu time    2.28: real time    2.28
    EDDIAG:  cpu time    0.97: real time    0.98
  RMM-DIIS:  cpu time    2.21: real time    2.21
    ORTHCH:  cpu time    0.17: real time    0.18
       DOS:  cpu time    0.00: real time    0.00
    CHARGE:  cpu time    0.85: real time    0.85
    MIXING:  cpu time    0.01: real time    0.01
    --------------------------------------------
      LOOP:  cpu time    6.71: real time    6.74

 eigenvalue-minimisations  :  1796
 total energy-change (2. order) : 0.2123035E-03  (-0.5033671E-04)
 number of electron     883.9999993 magnetization       2.0000000
 augmentation part      -13.0925257 magnetization       1.6376113

 DIPCOR: dipole corrections for dipol
 direction  3 min pos   231,
 dipolmoment           0.000000      0.000000      1.080964 electrons x Angstroem
 Tr[quadrupol]    -19542.396735

 energy correction for charged system         0.000000 eV
 dipol+quadrupol energy correction           -0.033472 eV
 added-field ion interaction         10.707209 eV  (added to PSCEN)


 Broyden mixing:
  rms(total) = 0.85714E-02    rms(broyden)= 0.85692E-02
  rms(prec ) = 0.92298E-02
  weight for this iteration     100.00

 eigenvalues of (default mixing * dielectric matrix)
  average eigenvalue GAMMA=   0.7709
  0.7709  0.7709

 Free energy of the ion-electron system (eV)
  ---------------------------------------------------
  alpha Z        PSCENC =      2282.92466274
  Ewald energy   TEWEN  =    249969.23580489
  -Hartree energ DENC   =   -317931.89402488
  -exchange      EXHF   =         0.00000000
  -V(xc)+E(xc)   XCENC  =      2311.33864326
  PAW double counting   =     67339.91972022   -66482.43908021
  entropy T*S    EENTRO =        -0.00000000
  eigenvalues    EBANDS =     -9076.07923733
  atomic energy  EATOM  =     70700.92898532
  ---------------------------------------------------
  free energy    TOTEN  =      -886.06452599 eV

  energy without entropy =     -886.06452599  energy(sigma->0) =     -886.06452599


--------------------------------------------------------------------------------------------------------




----------------------------------------- Iteration    1(   4)  ---------------------------------------


    POTLOK:  cpu time    0.21: real time    0.21
    SETDIJ:  cpu time    2.30: real time    2.30
    EDDIAG:  cpu time    0.97: real time    0.98
  RMM-DIIS:  cpu time    2.86: real time    2.86
    ORTHCH:  cpu time    0.17: real time    0.18
       DOS:  cpu time    0.00: real time    0.00
    CHARGE:  cpu time    0.85: real time    0.85
    MIXING:  cpu time    0.01: real time    0.01
    --------------------------------------------
      LOOP:  cpu time    7.37: real time    7.40

 eigenvalue-minimisations  :  2339
 total energy-change (2. order) : 0.4827774E-04  (-0.1478368E-03)
 number of electron     883.9999993 magnetization       2.0000000
 augmentation part      -13.0927945 magnetization       1.6376107

 DIPCOR: dipole corrections for dipol
 direction  3 min pos   231,
 dipolmoment           0.000000      0.000000      1.075722 electrons x Angstroem
 Tr[quadrupol]    -19542.403287

 energy correction for charged system         0.000000 eV
 dipol+quadrupol energy correction           -0.033149 eV
 added-field ion interaction         10.655287 eV  (added to PSCEN)


 Broyden mixing:
  rms(total) = 0.46060E-02    rms(broyden)= 0.46000E-02
  rms(prec ) = 0.47361E-02
  weight for this iteration     100.00

 eigenvalues of (default mixing * dielectric matrix)
  average eigenvalue GAMMA=   0.8463
  0.9663  0.9663  0.6064

 Free energy of the ion-electron system (eV)
  ---------------------------------------------------
  alpha Z        PSCENC =      2282.87306394
  Ewald energy   TEWEN  =    249969.23580489
  -Hartree energ DENC   =   -317932.18493371
  -exchange      EXHF   =         0.00000000
  -V(xc)+E(xc)   XCENC  =      2311.34119510
  PAW double counting   =     67339.92366043   -66482.44242627
  entropy T*S    EENTRO =        -0.00000000
  eigenvalues    EBANDS =     -9075.73982740
  atomic energy  EATOM  =     70700.92898532
  ---------------------------------------------------
  free energy    TOTEN  =      -886.06447771 eV

  energy without entropy =     -886.06447771  energy(sigma->0) =     -886.06447771


--------------------------------------------------------------------------------------------------------




----------------------------------------- Iteration    1(   5)  ---------------------------------------


    POTLOK:  cpu time    0.21: real time    0.21
    SETDIJ:  cpu time    2.30: real time    2.30
    EDDIAG:  cpu time    0.98: real time    0.99
  RMM-DIIS:  cpu time    1.83: real time    1.83
    ORTHCH:  cpu time    0.16: real time    0.17
       DOS:  cpu time    0.00: real time    0.00
    --------------------------------------------
      LOOP:  cpu time    5.49: real time    5.52

 eigenvalue-minimisations  :  1484
 total energy-change (2. order) :-0.2394007E-04  (-0.2528969E-04)
 number of electron     883.9999993 magnetization       2.0000000
 augmentation part      -13.0927945 magnetization       1.6376107

 DIPCOR: dipole corrections for dipol
 direction  3 min pos   231,
 dipolmoment           0.000000      0.000000      1.077055 electrons x Angstroem
 Tr[quadrupol]    -19542.404046

 energy correction for charged system         0.000000 eV
 dipol+quadrupol energy correction           -0.033231 eV
 added-field ion interaction         10.668491 eV  (added to PSCEN)


 Free energy of the ion-electron system (eV)
  ---------------------------------------------------
  alpha Z        PSCENC =      2282.88618576
  Ewald energy   TEWEN  =    249969.23580489
  -Hartree energ DENC   =   -317932.20760639
  -exchange      EXHF   =         0.00000000
  -V(xc)+E(xc)   XCENC  =      2311.34210402
  PAW double counting   =     67339.89978393   -66482.41778921
  entropy T*S    EENTRO =        -0.00000000
  eigenvalues    EBANDS =     -9075.73196997
  atomic energy  EATOM  =     70700.92898532
  ---------------------------------------------------
  free energy    TOTEN  =      -886.06450165 eV

  energy without entropy =     -886.06450165  energy(sigma->0) =     -886.06450165


--------------------------------------------------------------------------------------------------------




 average (electrostatic) potential at core
  the test charge radii are     1.1513  0.7215  1.2059  0.7215  0.6991
  (the norm of the test charge is              1.0000)
       1 -84.7579       2 -84.7606       3 -84.7591       4 -84.7692       5 -84.7689
       6 -84.7755       7 -84.4108       8 -84.4021       9 -84.3825      10 -84.4030
      11 -84.3761      12 -84.3925      13 -84.4269      14 -84.4558      15 -84.5167
      16 -84.4780      17 -84.4721      18 -84.4975      19 -84.4239      20 -84.4439
      21 -84.4733      22 -84.4352      23 -84.4634      24 -84.4905      25 -84.3777
      26 -84.3437      27 -84.5974      28 -84.5592      29 -84.4296      30 -84.4365
      31 -84.4127      32 -84.4561      33 -84.2267      34 -84.3686      35 -81.4037
      36 -81.0523      37 -73.2756      38 -73.2789      39 -73.2835      40 -73.2747
      41 -73.2696      42 -73.2732      43 -73.2888      44 -73.2862      45 -73.2808
      46 -73.2801      47 -73.2791      48 -73.2855      49 -73.6784      50 -73.6610
      51 -73.6046      52 -73.5827      53 -73.5915      54 -73.6420      55 -73.6167
      56 -73.6578      57 -73.6512      58 -73.6347      59 -73.6059      60 -73.6253
      61 -73.6052      62 -73.5956      63 -73.6284      64 -73.6646      65 -73.6547
      66 -73.6126      67 -73.6401      68 -73.6389      69 -73.5852      70 -73.5873
      71 -73.5633      72 -73.5948      73 -73.4618      74 -73.5467      75 -73.6331
      76 -73.5684      77 -73.6002      78 -73.5614      79 -73.5327      80 -73.4914
      81 -73.5985      82 -73.6364      83 -73.5056      84 -73.5604      85 -73.4921
      86 -73.8171      87 -73.8649      88 -73.4750      89 -73.7725      90 -73.7660
      91 -73.7880      92 -73.8151      93 -73.8369      94 -73.5764      95 -73.6372
      96 -73.7734      97 -73.4487      98 -73.7891      99 -73.7917     100 -73.1539
     101 -73.2016     102 -73.3703     103 -73.1351     104 -73.0255     105 -74.6679
     106 -73.1554     107 -73.1470     108 -73.7683     109 -72.4285     110 -74.1157
     111 -55.5101
 
 
 
 E-fermi :   1.1302     XC(G=0):  -5.9747     alpha+bet : -7.5686


 spin component 1

 k-point     1 :       0.0000    0.0000    0.0000
  band No.  band energies     occupation 
      1     -34.1053      1.00000
      2     -34.0976      1.00000
      3     -34.0707      1.00000
      4     -34.0628      1.00000
      5     -34.0579      1.00000
      6     -34.0551      1.00000
      7     -33.8183      1.00000
      8     -33.7790      1.00000
      9     -33.7471      1.00000
     10     -33.7210      1.00000
     11     -33.7133      1.00000
     12     -33.7041      1.00000
     13     -33.6535      1.00000
     14     -33.6445      1.00000
     15     -33.6360      1.00000
     16     -33.6280      1.00000
     17     -33.6167      1.00000
     18     -33.6070      1.00000
     19     -33.6046      1.00000
     20     -33.5955      1.00000
     21     -33.5889      1.00000
     22     -33.5763      1.00000
     23     -33.5699      1.00000
     24     -33.5654      1.00000
     25     -33.5583      1.00000
     26     -33.5496      1.00000
     27     -33.5457      1.00000
     28     -33.5208      1.00000
     29     -33.5167      1.00000
     30     -33.5116      1.00000
     31     -33.5093      1.00000
     32     -33.4986      1.00000
     33     -33.4886      1.00000
     34     -33.4755      1.00000
     35     -32.4367      1.00000
     36     -32.1030      1.00000
     37     -20.6777      1.00000
     38     -19.1166      1.00000
     39     -19.0753      1.00000
     40     -18.9371      1.00000
     41     -18.9080      1.00000
     42     -18.8972      1.00000
     43     -18.8401      1.00000
     44     -18.8298      1.00000
     45     -18.7593      1.00000
     46     -18.7504      1.00000
     47     -18.7092      1.00000
     48     -18.6823      1.00000
     49     -18.6645      1.00000
     50     -18.6217      1.00000
     51     -18.6089      1.00000
     52     -18.6031      1.00000
     53     -18.5684      1.00000
     54     -18.5528      1.00000
     55     -18.5361      1.00000
     56     -18.5312      1.00000
     57     -18.5143      1.00000
     58     -18.5021      1.00000
     59     -18.4831      1.00000
     60     -18.4663      1.00000
     61     -18.4550      1.00000
     62     -18.4073      1.00000
     63     -18.3578      1.00000
     64     -18.3524      1.00000
     65     -18.3076      1.00000
     66     -18.3007      1.00000
     67     -18.2773      1.00000
     68     -18.2630      1.00000
     69     -18.2445      1.00000
     70     -18.1737      1.00000
     71     -18.1385      1.00000
     72     -18.1289      1.00000
     73     -18.1276      1.00000
     74     -18.1039      1.00000
     75     -18.0958      1.00000
     76     -18.0691      1.00000
     77     -18.0419      1.00000
     78     -18.0366      1.00000
     79     -17.9498      1.00000
     80     -17.9224      1.00000
     81     -17.8242      1.00000
     82     -17.7895      1.00000
     83     -17.7457      1.00000
     84     -17.7049      1.00000
     85     -17.6823      1.00000
     86     -17.6150      1.00000
     87     -17.6086      1.00000
     88     -17.4598      1.00000
     89     -17.3650      1.00000
     90     -17.2028      1.00000
     91     -17.0876      1.00000
     92     -16.9861      1.00000
     93     -16.9752      1.00000
     94     -16.9500      1.00000
     95     -16.9121      1.00000
     96     -16.8681      1.00000
     97     -16.7741      1.00000
     98     -16.7530      1.00000
     99     -16.7114      1.00000
    100     -16.6764      1.00000
    101     -16.6482      1.00000
    102     -16.6424      1.00000
    103     -16.6348      1.00000
    104     -16.6128      1.00000
    105     -16.5753      1.00000
    106     -16.5205      1.00000
    107     -16.4260      1.00000
    108     -16.3976      1.00000
    109     -16.3713      1.00000
    110     -16.3663      1.00000
    111     -16.3640      1.00000
    112     -16.3248      1.00000
    113     -16.3224      1.00000
    114     -16.2977      1.00000
    115     -16.2852      1.00000
    116     -16.2772      1.00000
    117     -16.2710      1.00000
    118     -16.2559      1.00000
    119     -16.2504      1.00000
    120     -16.2502      1.00000
    121     -16.2207      1.00000
    122     -16.2179      1.00000
    123     -16.2149      1.00000
    124     -16.1784      1.00000
    125     -16.1681      1.00000
    126     -16.1494      1.00000
    127     -16.1365      1.00000
    128     -16.1232      1.00000
    129     -16.1072      1.00000
    130     -16.0898      1.00000
    131     -16.0808      1.00000
    132     -16.0764      1.00000
    133     -16.0658      1.00000
    134     -16.0553      1.00000
    135     -16.0419      1.00000
    136     -16.0392      1.00000
    137     -16.0051      1.00000
    138     -15.9790      1.00000
    139     -15.9714      1.00000
    140     -15.9631      1.00000
    141     -15.9284      1.00000
    142     -15.9145      1.00000
    143     -15.9069      1.00000
    144     -15.8564      1.00000
    145     -15.8395      1.00000
    146     -15.7984      1.00000
    147     -15.7392      1.00000
    148     -15.7145      1.00000
    149     -15.6434      1.00000
    150     -15.6338      1.00000
    151     -15.5585      1.00000
    152     -15.5358      1.00000
    153     -15.4943      1.00000
    154     -15.4572      1.00000
    155     -15.4120      1.00000
    156     -15.3859      1.00000
    157     -15.3386      1.00000
    158     -15.3035      1.00000
    159     -15.2885      1.00000
    160     -15.2241      1.00000
    161     -15.2137      1.00000
    162     -15.1724      1.00000
    163     -15.1684      1.00000
    164     -15.1357      1.00000
    165     -15.0340      1.00000
    166     -14.9249      1.00000
    167     -14.8809      1.00000
    168     -14.7966      1.00000
    169     -14.7428      1.00000
    170     -14.5978      1.00000
    171     -14.5883      1.00000
    172     -14.4911      1.00000
    173     -14.4070      1.00000
    174     -14.3279      1.00000
    175     -14.2649      1.00000
    176     -14.2037      1.00000
    177     -14.1214      1.00000
    178     -14.0943      1.00000
    179     -14.0675      1.00000
    180     -14.0527      1.00000
    181     -14.0466      1.00000
    182     -13.9847      1.00000
    183     -13.9838      1.00000
    184     -13.9578      1.00000
    185     -13.9425      1.00000
    186     -13.9338      1.00000
    187     -13.9129      1.00000
    188     -13.8930      1.00000
    189     -13.8644      1.00000
    190     -13.8232      1.00000
    191     -13.8108      1.00000
    192     -13.7683      1.00000
    193     -13.7649      1.00000
    194     -13.7321      1.00000
    195     -13.7161      1.00000
    196     -13.6615      1.00000
    197     -13.6367      1.00000
    198     -13.6194      1.00000
    199     -13.6026      1.00000
    200     -13.5642      1.00000
    201     -13.5185      1.00000
    202     -13.4772      1.00000
    203     -13.4343      1.00000
    204     -13.4189      1.00000
    205     -13.3840      1.00000
    206     -13.3493      1.00000
    207     -13.3374      1.00000
    208     -13.2656      1.00000
    209     -13.2474      1.00000
    210     -13.2237      1.00000
    211     -13.1373      1.00000
    212     -13.0348      1.00000
    213     -13.0019      1.00000
    214     -12.9837      1.00000
    215     -12.9752      1.00000
    216     -12.8110      1.00000
    217     -12.6692      1.00000
    218      -7.6552      1.00000
    219      -5.6816      1.00000
    220      -4.9141      1.00000
    221      -4.7861      1.00000
    222      -4.2204      1.00000
    223      -4.0319      1.00000
    224      -3.9867      1.00000
    225      -3.9221      1.00000
    226      -3.8069      1.00000
    227      -3.7550      1.00000
    228      -3.7212      1.00000
    229      -3.6281      1.00000
    230      -3.6013      1.00000
    231      -3.5949      1.00000
    232      -3.5175      1.00000
    233      -3.4786      1.00000
    234      -3.4046      1.00000
    235      -3.3881      1.00000
    236      -3.3480      1.00000
    237      -3.3406      1.00000
    238      -3.3130      1.00000
    239      -3.2769      1.00000
    240      -3.2701      1.00000
    241      -3.2641      1.00000
    242      -3.2436      1.00000
    243      -3.2321      1.00000
    244      -3.2297      1.00000
    245      -3.2226      1.00000
    246      -3.2108      1.00000
    247      -3.1993      1.00000
    248      -3.1646      1.00000
    249      -3.1574      1.00000
    250      -3.1267      1.00000
    251      -3.1134      1.00000
    252      -3.1121      1.00000
    253      -3.0747      1.00000
    254      -3.0504      1.00000
    255      -3.0415      1.00000
    256      -3.0327      1.00000
    257      -3.0215      1.00000
    258      -3.0126      1.00000
    259      -3.0094      1.00000
    260      -2.9776      1.00000
    261      -2.9427      1.00000
    262      -2.9293      1.00000
    263      -2.9142      1.00000
    264      -2.8996      1.00000
    265      -2.8929      1.00000
    266      -2.8843      1.00000
    267      -2.8731      1.00000
    268      -2.8661      1.00000
    269      -2.8607      1.00000
    270      -2.8202      1.00000
    271      -2.8018      1.00000
    272      -2.7837      1.00000
    273      -2.7574      1.00000
    274      -2.7415      1.00000
    275      -2.7363      1.00000
    276      -2.7330      1.00000
    277      -2.7090      1.00000
    278      -2.6920      1.00000
    279      -2.6717      1.00000
    280      -2.6235      1.00000
    281      -2.6070      1.00000
    282      -2.5691      1.00000
    283      -2.5544      1.00000
    284      -2.5258      1.00000
    285      -2.4996      1.00000
    286      -2.4809      1.00000
    287      -2.4489      1.00000
    288      -2.4325      1.00000
    289      -2.4251      1.00000
    290      -2.4170      1.00000
    291      -2.4099      1.00000
    292      -2.3909      1.00000
    293      -2.3695      1.00000
    294      -2.3399      1.00000
    295      -2.3348      1.00000
    296      -2.3238      1.00000
    297      -2.3196      1.00000
    298      -2.2983      1.00000
    299      -2.2839      1.00000
    300      -2.2513      1.00000
    301      -2.2053      1.00000
    302      -2.1807      1.00000
    303      -2.1619      1.00000
    304      -2.1495      1.00000
    305      -2.1174      1.00000
    306      -2.0899      1.00000
    307      -2.0754      1.00000
    308      -2.0536      1.00000
    309      -2.0390      1.00000
    310      -2.0274      1.00000
    311      -1.9778      1.00000
    312      -1.9698      1.00000
    313      -1.9554      1.00000
    314      -1.9328      1.00000
    315      -1.9148      1.00000
    316      -1.9039      1.00000
    317      -1.8876      1.00000
    318      -1.8818      1.00000
    319      -1.8789      1.00000
    320      -1.8678      1.00000
    321      -1.8415      1.00000
    322      -1.8290      1.00000
    323      -1.8201      1.00000
    324      -1.7890      1.00000
    325      -1.7683      1.00000
    326      -1.7591      1.00000
    327      -1.7575      1.00000
    328      -1.7522      1.00000
    329      -1.7496      1.00000
    330      -1.7219      1.00000
    331      -1.7092      1.00000
    332      -1.7058      1.00000
    333      -1.6940      1.00000
    334      -1.6895      1.00000
    335      -1.6797      1.00000
    336      -1.6524      1.00000
    337      -1.6296      1.00000
    338      -1.6178      1.00000
    339      -1.6040      1.00000
    340      -1.5923      1.00000
    341      -1.5731      1.00000
    342      -1.5652      1.00000
    343      -1.5419      1.00000
    344      -1.5171      1.00000
    345      -1.5087      1.00000
    346      -1.4973      1.00000
    347      -1.4775      1.00000
    348      -1.4497      1.00000
    349      -1.4272      1.00000
[...]
      4.35031      3.88202      0.00000        -1.134433      0.015456     -0.450799
      9.84031      7.76403      0.00000        -1.142784      0.011350     -0.466547
      1.60531      7.76403      0.00000         1.151184      0.008850     -0.463370
      4.35031      9.70504      1.94101        -0.340111      0.060701     -0.295303
      7.09531      9.70504      1.94101         0.316687     -0.009607     -0.347893
      4.35031      1.94101      1.94101        -0.373231      0.017653     -0.266706
      1.60531      1.94101      1.94101         0.403081      0.041332     -0.301772
      9.84031      1.94101      1.94101        -0.358818      0.047767     -0.377124
      9.84031      9.70504      1.94101        -0.337177      0.005663     -0.365746
      7.09531      1.94101      1.94101         0.326713      0.051703     -0.357442
      1.60531      9.70504      1.94101         0.369648      0.025587     -0.300123
      4.35031      5.82303      1.94101        -0.347973     -0.075803     -0.326628
      1.60531      5.82303      1.94101         0.373824     -0.031374     -0.350671
      9.84031      5.82303      1.94101        -0.362041     -0.031164     -0.346434
      7.09531      5.82303      1.94101         0.339515     -0.029856     -0.343290
      7.09198      0.00772      3.86677         0.001790      0.000692     -0.002135
      4.34958      7.75745      3.86741         0.000083      0.001957     -0.000669
      7.09823      7.75257      3.88068         0.000689      0.001344     -0.001723
      9.82655      7.75817      3.85984         0.002533     -0.000236      0.002837
      1.61744      0.02509      3.87404         0.000061     -0.000245      0.003243
      9.83806      0.01143      3.86024         0.002963     -0.000414      0.000122
      4.34631      0.01921      3.90239        -0.000733     -0.000267     -0.001611
      1.60976      7.75802      3.86473        -0.000974     -0.000980      0.003027
      4.35119      3.86887      3.90327         0.000427     -0.001459     -0.002776
      9.83879      3.88491      3.88088         0.001527      0.000714      0.001120
      7.08746      3.88954      3.89200         0.001956     -0.001645     -0.004449
      1.60652      3.87693      3.88109         0.000801     -0.000610      0.001147
      7.08234      1.94089      5.80258         0.004808     -0.002166     -0.005110
      7.08901      9.72985      5.77837         0.004429      0.000096      0.002749
      4.34693      9.67073      5.80684        -0.002347      0.000913      0.003446
      9.84653      5.81141      5.80833         0.002699      0.002237      0.007316
      1.61828      9.71760      5.77448        -0.000954     -0.003437      0.005588
      7.08392      5.80366      5.83681         0.004940      0.004251     -0.003056
      4.35192      1.96653      5.91928         0.000542     -0.003049     -0.000653
      9.84443      1.94711      5.79759         0.007770     -0.003141     -0.003096
      4.32746      5.82558      5.81561        -0.000990      0.003439     -0.004942
      1.61304      5.80466      5.80851         0.000690     -0.000744      0.004651
      1.60907      1.98144      5.86054         0.000480      0.000042      0.003450
      9.85122      9.72740      5.76540         0.001403     -0.001442      0.004557
      7.12422      3.82525      7.76761         0.002310      0.000325      0.005468
      9.86584      0.00900      7.67884         0.002698     -0.005670      0.001979
      1.56351      7.76874      7.61621        -0.000552     -0.002093      0.000058
      4.33965      4.04342      7.89468         0.001470     -0.006577      0.004926
      7.08988      0.01011      7.70240         0.007849     -0.007783     -0.005894
      7.14237      7.82094      7.67087         0.002562      0.009654      0.005362
      4.36816     11.52798      7.77642        -0.002938     -0.011607     -0.002651
      9.81441      7.80596      7.66073        -0.004457      0.003175     -0.000789
      4.43520      7.70386      7.77139         0.000622      0.000954      0.006756
      9.82969      3.84727      7.75291         0.001831      0.001409     -0.003612
      1.61895      3.98601      7.84883         0.001812      0.004120     -0.001132
      1.62619     11.60954      7.69831        -0.002012      0.000806      0.005926
      7.04889      9.73840      9.60657         0.008302      0.000659      0.001645
      1.65044      9.64792      9.64655         0.000079      0.000235      0.000743
      4.40173      9.57111     10.02812        -0.010531     -0.010088     -0.004015
      4.42695      1.80626      9.64879         0.003744      0.002025      0.002958
      1.59137      1.80936      9.66231        -0.005532     -0.003819      0.008269
      9.92751      9.76451      9.61462        -0.007659      0.006963      0.000240
      9.90592      1.81907      9.68181        -0.000022     -0.003564      0.000442
      7.09407      1.76433      9.74067        -0.000288     -0.001274      0.007941
      4.60848      5.76240     10.62040         0.007424     -0.005854     -0.022071
      9.99256      5.91445      9.60491         0.003666     -0.002758     -0.011961
      7.05448      5.94782      9.57152         0.005366      0.009500     -0.001752
      1.83091      6.36734      9.92014        -0.002508     -0.000768      0.012803
      3.00118      8.07051     10.38453        -0.005547     -0.008780      0.001044
      3.75767      6.50394     12.59421        -0.022731     -0.025104      0.024943
      3.92629      6.58908     11.38096        -0.003327     -0.011606     -0.038402
 -----------------------------------------------------------------------------------
    total drift:                               -0.082817      0.016541      0.051550


--------------------------------------------------------------------------------------------------------



  FREE ENERGIE OF THE ION-ELECTRON SYSTEM (eV)
  ---------------------------------------------------
  free  energy   TOTEN  =      -907.06451569 eV

  energy  without entropy=     -907.06451569  energy(sigma->0) =     -907.06451569
 
 d Force = 0.1958821E-03[ 0.169E-04, 0.375E-03]  d Energy = 0.3963292E-03-0.200E-03
 d Force =-0.3674096E+01[-0.368E+01,-0.367E+01]  d Ewald  =-0.3674096E+01 0.499E-06


--------------------------------------------------------------------------------------------------------


    POTLOK:  cpu time    2.49: real time    2.49


--------------------------------------------------------------------------------------------------------


 stress matrix after NEB project (eV)
    -66.59052     -0.55013     -0.19012
     -0.55014   -120.62011     -0.79446
     -0.19025     -0.79475    -67.92281
  FORCES: max atom, RMS     0.042060    0.009737
  FORCE total and by dimension    0.102587    0.038402
  Stress total and by dimension  153.619518  120.620113
 Conjugate gradient step on ions:
 trial-energy change:   -0.000396  1 .order   -0.000196   -0.000375   -0.000017
  (g-gl).g = 0.227E-03      g.g   = 0.220E-03  gl.gl    = 0.552E-03
 g(Force)  = 0.220E-03   g(Stress)= 0.000E+00 ortho     = 0.207E-04
 gamma     =   0.41111
 trial     =   1.64290
 opt step  =   1.72063  (harmonic =   1.72063) maximal distance =0.00064111
 next E    =  -907.064316   (d E  =  -0.00020)


--------------------------------------------------------------------------------------------------------


  
 reached required accuracy - stopping structural energy minimisation
 writing wavefunctions
     LOOP+:  cpu time   49.03: real time   50.74
    4ORBIT:  cpu time    0.00: real time    0.00
 


 total charge     
 
# of ion     s       p       d       f       tot
------------------------------------------------
  1        1.992   5.764   0.873   0.773   9.402
  2        1.992   5.764   0.872   0.774   9.402
  3        1.992   5.764   0.872   0.773   9.401
  4        1.992   5.764   0.872   0.774   9.402
  5        1.992   5.764   0.872   0.774   9.402
  6        1.991   5.764   0.872   0.775   9.402
  7        1.993   5.818   0.902   0.722   9.435
  8        1.994   5.819   0.904   0.722   9.439
  9        1.994   5.819   0.905   0.723   9.440
 10        1.993   5.818   0.899   0.721   9.430
 11        1.993   5.818   0.902   0.722   9.435
 12        1.994   5.819   0.906   0.723   9.442
 13        1.995   5.820   0.913   0.725   9.453
 14        1.995   5.821   0.918   0.727   9.461
 15        1.993   5.818   0.901   0.722   9.434
 16        1.994   5.820   0.911   0.724   9.450
 17        1.995   5.820   0.913   0.726   9.454
 18        1.995   5.820   0.914   0.726   9.454
 19        1.997   5.823   0.934   0.733   9.487
 20        1.996   5.821   0.921   0.730   9.467
 21        1.994   5.819   0.908   0.725   9.445
 22        1.996   5.822   0.926   0.729   9.472
 23        1.995   5.820   0.918   0.727   9.459
 24        1.993   5.817   0.898   0.722   9.430
 25        1.993   5.817   0.913   0.724   9.447
 26        1.994   5.818   0.918   0.725   9.454
 27        1.996   5.807   0.920   0.739   9.462
 28        1.993   5.813   0.921   0.734   9.461
 29        1.991   5.811   0.899   0.727   9.428
 30        1.995   5.821   0.925   0.728   9.469
 31        2.002   5.782   1.011   0.780   9.574
 32        2.001   5.780   1.009   0.777   9.568
 33        2.003   5.791   1.039   0.793   9.626
 34        2.001   5.783   1.037   0.779   9.600
 35        2.024   5.741   0.709   1.160   9.635
 36        2.022   5.757   0.679   1.155   9.613
 37        1.600   3.384   0.000   0.000   4.985
 38        1.600   3.384   0.000   0.000   4.984
 39        1.600   3.384   0.000   0.000   4.985
 40        1.600   3.384   0.000   0.000   4.985
 41        1.600   3.384   0.000   0.000   4.984
 42        1.600   3.384   0.000   0.000   4.984
 43        1.600   3.384   0.000   0.000   4.985
 44        1.600   3.384   0.000   0.000   4.984
 45        1.600   3.384   0.000   0.000   4.985
 46        1.600   3.384   0.000   0.000   4.984
 47        1.600   3.384   0.000   0.000   4.984
 48        1.600   3.384   0.000   0.000   4.985
 49        1.597   3.459   0.000   0.000   5.055
 50        1.597   3.458   0.000   0.000   5.055
 51        1.596   3.454   0.000   0.000   5.050
 52        1.596   3.454   0.000   0.000   5.050
 53        1.596   3.455   0.000   0.000   5.052
 54        1.597   3.458   0.000   0.000   5.055
 55        1.597   3.456   0.000   0.000   5.053
 56        1.597   3.458   0.000   0.000   5.055
 57        1.597   3.458   0.000   0.000   5.055
 58        1.597   3.457   0.000   0.000   5.054
 59        1.596   3.456   0.000   0.000   5.052
 60        1.597   3.457   0.000   0.000   5.053
 61        1.598   3.466   0.000   0.000   5.064
 62        1.598   3.463   0.000   0.000   5.061
 63        1.598   3.465   0.000   0.000   5.063
 64        1.599   3.467   0.000   0.000   5.066
 65        1.598   3.465   0.000   0.000   5.064
 66        1.598   3.466   0.000   0.000   5.065
 67        1.598   3.462   0.000   0.000   5.060
 68        1.598   3.467   0.000   0.000   5.065
 69        1.598   3.460   0.000   0.000   5.057
 70        1.598   3.464   0.000   0.000   5.061
 71        1.597   3.461   0.000   0.000   5.059
 72        1.598   3.462   0.000   0.000   5.060
 73        1.597   3.455   0.000   0.000   5.053
 74        1.598   3.460   0.000   0.000   5.058
 75        1.598   3.460   0.000   0.000   5.058
 76        1.598   3.458   0.000   0.000   5.055
 77        1.597   3.463   0.000   0.000   5.060
 78        1.597   3.458   0.000   0.000   5.055
 79        1.597   3.449   0.000   0.000   5.046
 80        1.598   3.458   0.000   0.000   5.055
 81        1.597   3.460   0.000   0.000   5.057
 82        1.597   3.465   0.000   0.000   5.062
 83        1.597   3.451   0.000   0.000   5.048
 84        1.598   3.462   0.000   0.000   5.059
 85        1.597   3.475   0.000   0.000   5.072
 86        1.600   3.482   0.000   0.000   5.081
 87        1.600   3.475   0.000   0.000   5.075
 88        1.595   3.454   0.000   0.000   5.048
 89        1.599   3.479   0.000   0.000   5.078
 90        1.600   3.479   0.000   0.000   5.079
 91        1.598   3.470   0.000   0.000   5.068
 92        1.600   3.482   0.000   0.000   5.082
 93        1.598   3.459   0.000   0.000   5.057
 94        1.597   3.475   0.000   0.000   5.072
 95        1.596   3.467   0.000   0.000   5.063
 96        1.598   3.474   0.000   0.000   5.072
 97        1.603   3.433   0.000   0.000   5.036
 98        1.598   3.417   0.000   0.000   5.015
 99        1.593   3.385   0.000   0.000   4.978
100        1.603   3.434   0.000   0.000   5.037
101        1.603   3.429   0.000   0.000   5.031
102        1.602   3.423   0.000   0.000   5.025
103        1.600   3.433   0.000   0.000   5.033
104        1.600   3.431   0.000   0.000   5.031
105        1.598   3.560   0.000   0.000   5.157
106        1.600   3.432   0.000   0.000   5.032
107        1.603   3.433   0.000   0.000   5.035
108        1.597   3.379   0.000   0.000   4.976
109        0.686   0.543   8.124   0.000   9.353
110        1.619   3.532   0.000   0.000   5.151
111        0.873   1.659   0.000   0.000   2.532
------------------------------------------------
tot      190.125 462.602  40.731  27.510 720.968

 


 magnetization (x)
 
# of ion     s       p       d       f       tot
------------------------------------------------
  1       -0.000  -0.000   0.000   0.000   0.000
  2       -0.000  -0.000   0.000   0.000  -0.000
  3        0.000   0.000   0.000   0.000   0.000
  4        0.000  -0.000   0.000   0.000   0.000
  5        0.000   0.000   0.000   0.000   0.000
  6        0.000   0.000   0.000   0.000   0.000
  7       -0.000  -0.000  -0.000  -0.000  -0.000
  8       -0.000  -0.000   0.000  -0.000  -0.000
  9       -0.000  -0.000  -0.000  -0.000  -0.000
 10       -0.000  -0.000   0.000   0.000   0.000
 11       -0.000  -0.000   0.000   0.000   0.000
 12       -0.000  -0.000  -0.000  -0.000  -0.000
 13        0.000  -0.000   0.000   0.000   0.000
 14       -0.000  -0.000  -0.000  -0.000  -0.000
 15        0.000  -0.000   0.000   0.000   0.000
 16        0.000  -0.000  -0.000   0.000   0.000
 17       -0.000  -0.000  -0.000   0.000   0.000
 18       -0.000  -0.000  -0.000  -0.000  -0.000
 19       -0.000  -0.000  -0.000  -0.000  -0.000
 20       -0.000  -0.000  -0.000   0.000  -0.000
 21       -0.000  -0.000   0.000   0.002   0.002
 22       -0.000  -0.000   0.000   0.000   0.000
 23       -0.000  -0.000  -0.000  -0.000  -0.000
 24       -0.000  -0.000   0.000   0.002   0.002
 25       -0.000  -0.000  -0.000   0.002   0.002
 26       -0.000  -0.000   0.001   0.007   0.008
 27       -0.000  -0.000   0.000   0.005   0.005
 28        0.000  -0.000   0.000   0.000   0.000
 29       -0.000  -0.000   0.000   0.003   0.003
 30       -0.000  -0.000  -0.000   0.000   0.000
 31       -0.000  -0.000   0.000   0.003   0.003
 32       -0.000  -0.000  -0.000   0.001   0.001
 33       -0.000  -0.000  -0.000   0.000  -0.000
 34       -0.000  -0.000  -0.000  -0.000  -0.000
 35       -0.003  -0.006   0.012   0.976   0.979
 36       -0.004  -0.006   0.012   0.977   0.979
 37       -0.000  -0.000   0.000   0.000  -0.000
 38       -0.000  -0.000   0.000   0.000  -0.000
 39       -0.000  -0.000   0.000   0.000  -0.000
 40       -0.000  -0.000   0.000   0.000  -0.000
 41       -0.000  -0.000   0.000   0.000  -0.000
 42       -0.000  -0.000   0.000   0.000  -0.000
 43        0.000  -0.000   0.000   0.000  -0.000
 44        0.000  -0.000   0.000   0.000  -0.000
 45       -0.000  -0.000   0.000   0.000  -0.000
 46       -0.000  -0.000   0.000   0.000  -0.000
 47        0.000  -0.000   0.000   0.000  -0.000
 48       -0.000  -0.000   0.000   0.000  -0.000
 49       -0.000  -0.000   0.000   0.000  -0.000
 50       -0.000  -0.000   0.000   0.000  -0.000
 51       -0.000  -0.000   0.000   0.000  -0.000
 52       -0.000  -0.000   0.000   0.000  -0.000
 53       -0.000  -0.000   0.000   0.000  -0.000
 54       -0.000  -0.000   0.000   0.000  -0.000
 55       -0.000  -0.000   0.000   0.000  -0.000
 56        0.000  -0.000   0.000   0.000  -0.000
 57       -0.000  -0.000   0.000   0.000  -0.000
 58       -0.000  -0.000   0.000   0.000  -0.000
 59       -0.000  -0.000   0.000   0.000  -0.000
 60       -0.000  -0.000   0.000   0.000  -0.000
 61       -0.000  -0.000   0.000   0.000  -0.000
 62       -0.000  -0.000   0.000   0.000  -0.000
 63       -0.000  -0.000   0.000   0.000  -0.000
 64       -0.000  -0.000   0.000   0.000  -0.000
 65       -0.000  -0.000   0.000   0.000  -0.000
 66       -0.000  -0.000   0.000   0.000  -0.000
 67       -0.000  -0.000   0.000   0.000  -0.000
 68        0.000  -0.000   0.000   0.000  -0.000
 69       -0.000  -0.000   0.000   0.000  -0.000
 70       -0.000  -0.000   0.000   0.000  -0.000
 71       -0.000  -0.000   0.000   0.000  -0.000
 72       -0.000  -0.000   0.000   0.000  -0.000
 73       -0.000  -0.000   0.000   0.000  -0.000
 74       -0.000  -0.000   0.000   0.000  -0.000
 75       -0.000  -0.000   0.000   0.000  -0.000
 76       -0.000  -0.000   0.000   0.000  -0.000
 77       -0.000  -0.000   0.000   0.000  -0.000
 78       -0.000  -0.000   0.000   0.000  -0.000
 79       -0.000  -0.000   0.000   0.000  -0.000
 80       -0.000  -0.000   0.000   0.000  -0.000
 81       -0.000  -0.000   0.000   0.000  -0.000
 82       -0.000  -0.000   0.000   0.000  -0.000
 83       -0.000  -0.000   0.000   0.000  -0.000
 84       -0.000  -0.000   0.000   0.000  -0.000
 85       -0.000  -0.003   0.000   0.000  -0.003
 86       -0.000  -0.000   0.000   0.000  -0.000
 87       -0.000  -0.000   0.000   0.000  -0.000
 88       -0.000  -0.007   0.000   0.000  -0.007
 89       -0.000  -0.000   0.000   0.000  -0.000
 90       -0.000  -0.000   0.000   0.000  -0.000
 91       -0.000  -0.000   0.000   0.000  -0.000
 92       -0.000  -0.000   0.000   0.000  -0.000
 93       -0.000  -0.000   0.000   0.000  -0.000
 94       -0.000  -0.006   0.000   0.000  -0.006
 95       -0.000  -0.003   0.000   0.000  -0.003
 96       -0.000  -0.000   0.000   0.000  -0.000
 97       -0.000  -0.000   0.000   0.000  -0.000
 98       -0.000  -0.000   0.000   0.000  -0.000
 99        0.000   0.000   0.000   0.000   0.000
100       -0.000  -0.004   0.000   0.000  -0.004
101       -0.000  -0.004   0.000   0.000  -0.004
102       -0.000  -0.000   0.000   0.000  -0.000
103       -0.000  -0.006   0.000   0.000  -0.007
104       -0.000  -0.004   0.000   0.000  -0.004
105       -0.000  -0.001   0.000   0.000  -0.002
106       -0.000  -0.004   0.000   0.000  -0.004
107       -0.000  -0.002   0.000   0.000  -0.003
108        0.000  -0.001   0.000   0.000  -0.001
109        0.000  -0.000   0.000   0.000   0.000
110        0.000   0.000   0.000   0.000   0.000
111        0.000   0.000   0.000   0.000   0.000
------------------------------------------------
tot       -0.010  -0.062   0.025   1.979   1.932

 

 total amount of memory used by VASP on root node    88916. kBytes
========================================================================

   base      :      30000. kBytes
   nonlr-proj:      13867. kBytes
   fftplans  :      14971. kBytes
   grid      :      23311. kBytes
   one-center:        933. kBytes
   wavefun   :       5834. kBytes
 
  
  
 General timing and accounting informations for this job:
 ========================================================
  
                  Total CPU time used (sec):     1092.352
                            User time (sec):     1069.983
                          System time (sec):       22.368
                         Elapsed time (sec):     1103.591
  
                   Maximum memory used (kb):      315812.
                   Average memory used (kb):           0.
  
                          Minor page faults:       404610
                          Major page faults:            3
                 Voluntary context switches:       134117
