       N       E                     dE             d eps       ncg     rms          rms(c)
DAV:   1    -0.883286021150E+03   -0.88329E+03   -0.15569E-03  3680   0.531E-02    0.689E-02
RMM:   2    -0.883285983889E+03    0.37261E-04   -0.25702E-04  1549   0.319E-02
   1 F= -.90433280E+03 E0= -.90433279E+03  d E =-.904333E+03  mag=    -1.9999
       N       E                     dE             d eps       ncg     rms          rms(c)
DAV:   1    -0.883286502611E+03   -0.48146E-03   -0.42730E-02  2600   0.240E-01    0.671E-02
RMM:   2    -0.883286630984E+03   -0.12837E-03   -0.15775E-03  2405   0.809E-02    0.588E-02
RMM:   3    -0.883286663365E+03   -0.32381E-04   -0.35227E-04  1531   0.297E-02
   2 F= -.90433349E+03 E0= -.90433348E+03  d E =-.688141E-03  mag=    -1.9999
       N       E                     dE             d eps       ncg     rms          rms(c)
DAV:   1    -0.883286859851E+03   -0.22887E-03   -0.17624E-02  2952   0.157E-01    0.647E-02
RMM:   2    -0.883286914049E+03   -0.54198E-04   -0.68395E-04  1835   0.552E-02
   3 F= -.90433374E+03 E0= -.90433374E+03  d E =-.944257E-03  mag=    -2.0000
       N       E                     dE             d eps       ncg     rms          rms(c)
DAV:   1    -0.883287340095E+03   -0.48024E-03   -0.35330E-02  2456   0.213E-01    0.708E-02
RMM:   2    -0.883287436142E+03   -0.96046E-04   -0.11187E-03  2076   0.638E-02    0.742E-02
RMM:   3    -0.883287457370E+03   -0.21228E-04   -0.24546E-04  1472   0.288E-02
   4 F= -.90433434E+03 E0= -.90433433E+03  d E =-.591918E-03  mag=    -2.0000
       N       E                     dE             d eps       ncg     rms          rms(c)
DAV:   1    -0.883287543863E+03   -0.10772E-03   -0.87193E-02  2392   0.334E-01    0.115E-01
RMM:   2    -0.883287779076E+03   -0.23521E-03   -0.29551E-03  2580   0.101E-01    0.109E-01
RMM:   3    -0.883287825241E+03   -0.46165E-04   -0.52882E-04  1803   0.338E-02
   5 F= -.90433478E+03 E0= -.90433478E+03  d E =-.103676E-02  mag=    -2.0000
       N       E                     dE             d eps       ncg     rms          rms(c)
DAV:   1    -0.883288138690E+03   -0.35961E-03   -0.18394E-02  3328   0.159E-01    0.711E-02
RMM:   2    -0.883288182619E+03   -0.43929E-04   -0.50722E-04  1684   0.455E-02
   6 F= -.90433516E+03 E0= -.90433516E+03  d E =-.378953E-03  mag=    -2.0000
       N       E                     dE             d eps       ncg     rms          rms(c)
DAV:   1    -0.883288457614E+03   -0.31892E-03   -0.16644E-01  2416   0.461E-01    0.118E-01
RMM:   2    -0.883288857925E+03   -0.40031E-03   -0.45240E-03  2607   0.127E-01    0.124E-01
RMM:   3    -0.883288932835E+03   -0.74911E-04   -0.87081E-04  1976   0.392E-02
   7 F= -.90433597E+03 E0= -.90433597E+03  d E =-.119392E-02  mag=    -2.0000
       N       E                     dE             d eps       ncg     rms          rms(c)
DAV:   1    -0.883287920086E+03    0.93784E-03   -0.65975E-01  2448   0.917E-01    0.237E-01
RMM:   2    -0.883289500265E+03   -0.15802E-02   -0.17706E-02  2863   0.242E-01    0.228E-01
RMM:   3    -0.883289801371E+03   -0.30111E-03   -0.34190E-03  2770   0.677E-02    0.204E-01
RMM:   4    -0.883289934450E+03   -0.13308E-03   -0.80385E-04  2069   0.450E-02    0.134E-01
RMM:   5    -0.883290068724E+03   -0.13427E-03   -0.58735E-04  1757   0.425E-02    0.481E-02
RMM:   6    -0.883290101860E+03   -0.33135E-04   -0.14853E-04  1462   0.348E-02
   8 F= -.90433727E+03 E0= -.90433727E+03  d E =-.249271E-02  mag=    -2.0000
       N       E                     dE             d eps       ncg     rms          rms(c)
DAV:   1    -0.883281858102E+03    0.82106E-02   -0.26465E+00  2368   0.183E+00    0.370E-01
RMM:   2    -0.883288224716E+03   -0.63666E-02   -0.67083E-02  2820   0.464E-01    0.352E-01
RMM:   3    -0.883289351920E+03   -0.11272E-02   -0.12474E-02  3292   0.131E-01    0.316E-01
RMM:   4    -0.883289487629E+03   -0.13571E-03   -0.25632E-03  2834   0.694E-02    0.231E-01
RMM:   5    -0.883289880097E+03   -0.39247E-03   -0.18262E-03  2598   0.524E-02    0.107E-01
RMM:   6    -0.883289931533E+03   -0.51436E-04   -0.41233E-04  1689   0.378E-02
   9 F= -.90433736E+03 E0= -.90433736E+03  d E =-.258305E-02  mag=    -2.0000
       N       E                     dE             d eps       ncg     rms          rms(c)
DAV:   1    -0.883288829585E+03    0.10505E-02   -0.64366E-01  2680   0.902E-01    0.170E-01
RMM:   2    -0.883290292560E+03   -0.14630E-02   -0.15170E-02  2755   0.221E-01    0.165E-01
RMM:   3    -0.883290456456E+03   -0.16390E-03   -0.21117E-03  2279   0.614E-02    0.153E-01
RMM:   4    -0.883290444967E+03    0.11488E-04   -0.41751E-04  1589   0.429E-02
  10 F= -.90433775E+03 E0= -.90433775E+03  d E =-.296761E-02  mag=    -2.0000
       N       E                     dE             d eps       ncg     rms          rms(c)
DAV:   1    -0.883290559509E+03   -0.10305E-03   -0.25991E-01  2496   0.549E-01    0.122E-01
RMM:   2    -0.883291351008E+03   -0.79150E-03   -0.81196E-03  2785   0.162E-01    0.659E-02
RMM:   3    -0.883291440615E+03   -0.89607E-04   -0.10857E-03  1989   0.483E-02    0.544E-02
RMM:   4    -0.883291464231E+03   -0.23617E-04   -0.26752E-04  1509   0.409E-02
  11 F= -.90433867E+03 E0= -.90433867E+03  d E =-.923509E-03  mag=    -2.0000
       N       E                     dE             d eps       ncg     rms          rms(c)
DAV:   1    -0.883291631788E+03   -0.19117E-03   -0.71908E-02  2600   0.289E-01    0.695E-02
RMM:   2    -0.883291828515E+03   -0.19673E-03   -0.21700E-03  2460   0.868E-02    0.497E-02
RMM:   3    -0.883291876098E+03   -0.47583E-04   -0.40587E-04  1611   0.320E-02
  12 F= -.90433903E+03 E0= -.90433903E+03  d E =-.128473E-02  mag=    -2.0000
       N       E                     dE             d eps       ncg     rms          rms(c)
DAV:   1    -0.883291336814E+03    0.49170E-03   -0.28517E-01  2480   0.574E-01    0.133E-01
RMM:   2    -0.883292200262E+03   -0.86345E-03   -0.92757E-03  2833   0.175E-01    0.892E-02
RMM:   3    -0.883292392031E+03   -0.19177E-03   -0.18771E-03  2519   0.549E-02    0.727E-02
RMM:   4    -0.883292463250E+03   -0.71219E-04   -0.48368E-04  1684   0.417E-02
  13 F= -.90433952E+03 E0= -.90433952E+03  d E =-.177061E-02  mag=    -2.0000
       N       E                     dE             d eps       ncg     rms          rms(c)
DAV:   1    -0.883292565564E+03   -0.17353E-03   -0.25902E-01  2424   0.506E-01    0.134E-01
RMM:   2    -0.883293207028E+03   -0.64146E-03   -0.72504E-03  2899   0.128E-01    0.103E-01
RMM:   3    -0.883293283459E+03   -0.76431E-04   -0.93384E-04  1852   0.407E-02
  14 F= -.90434030E+03 E0= -.90434030E+03  d E =-.784677E-03  mag=    -2.0000
       N       E                     dE             d eps       ncg     rms          rms(c)
DAV:   1    -0.883293346213E+03   -0.13919E-03   -0.32036E-03  3024   0.740E-02    0.562E-02
RMM:   2    -0.883293384835E+03   -0.38622E-04   -0.17431E-04  1506   0.313E-02
  15 F= -.90434041E+03 E0= -.90434041E+03  d E =-.889492E-03  mag=    -2.0000
       N       E                     dE             d eps       ncg     rms          rms(c)
DAV:   1    -0.883293407941E+03   -0.61727E-04   -0.11630E-03  1984   0.456E-02    0.352E-02
RMM:   2    -0.883293421363E+03   -0.13422E-04   -0.77649E-05  1307   0.248E-02
  16 F= -.90434044E+03 E0= -.90434044E+03  d E =-.923656E-03  mag=    -2.0000
       N       E                     dE             d eps       ncg     rms          rms(c)
DAV:   1    -0.883293766743E+03   -0.35880E-03   -0.15805E-01  2408   0.424E-01    0.106E-01
RMM:   2    -0.883294118456E+03   -0.35171E-03   -0.39454E-03  2705   0.104E-01    0.991E-02
RMM:   3    -0.883294148318E+03   -0.29862E-04   -0.44274E-04  1620   0.323E-02
  17 F= -.90434119E+03 E0= -.90434119E+03  d E =-.746500E-03  mag=    -2.0000
       N       E                     dE             d eps       ncg     rms          rms(c)
DAV:   1    -0.883294114912E+03    0.35442E-05   -0.23234E-01  2472   0.515E-01    0.153E-01
RMM:   2    -0.883294658509E+03   -0.54360E-03   -0.60762E-03  2840   0.131E-01    0.140E-01
RMM:   3    -0.883294722225E+03   -0.63716E-04   -0.74324E-04  1775   0.407E-02
  18 F= -.90434179E+03 E0= -.90434179E+03  d E =-.134440E-02  mag=    -2.0000
       N       E                     dE             d eps       ncg     rms          rms(c)
DAV:   1    -0.883294854034E+03   -0.19553E-03   -0.30469E-02  3336   0.193E-01    0.109E-01
RMM:   2    -0.883294916460E+03   -0.62426E-04   -0.84844E-04  1919   0.530E-02
  19 F= -.90434199E+03 E0= -.90434199E+03  d E =-.154736E-02  mag=    -2.0000
       N       E                     dE             d eps       ncg     rms          rms(c)
DAV:   1    -0.883294954143E+03   -0.10011E-03   -0.13784E-01  2496   0.395E-01    0.130E-01
RMM:   2    -0.883295274500E+03   -0.32036E-03   -0.37348E-03  2634   0.105E-01    0.125E-01
RMM:   3    -0.883295329577E+03   -0.55077E-04   -0.57296E-04  1774   0.344E-02
  20 F= -.90434259E+03 E0= -.90434259E+03  d E =-.603987E-03  mag=    -2.0000
       N       E                     dE             d eps       ncg     rms          rms(c)
DAV:   1    -0.883294858643E+03    0.41586E-03   -0.25632E-01  2640   0.540E-01    0.162E-01
RMM:   2    -0.883295463758E+03   -0.60512E-03   -0.70546E-03  2835   0.146E-01    0.143E-01
RMM:   3    -0.883295555062E+03   -0.91304E-04   -0.10257E-03  1973   0.432E-02    0.125E-01
RMM:   4    -0.883295625132E+03   -0.70070E-04   -0.26662E-04  1554   0.405E-02
  21 F= -.90434315E+03 E0= -.90434315E+03  d E =-.116195E-02  mag=    -2.0000
       N       E                     dE             d eps       ncg     rms          rms(c)
DAV:   1    -0.883292037954E+03    0.35171E-02   -0.10253E+00  2432   0.107E+00    0.241E-01
RMM:   2    -0.883294371376E+03   -0.23334E-02   -0.25427E-02  3012   0.258E-01    0.204E-01
RMM:   3    -0.883294678037E+03   -0.30666E-03   -0.35695E-03  2982   0.738E-02    0.182E-01
RMM:   4    -0.883294819394E+03   -0.14136E-03   -0.10856E-03  2059   0.443E-02    0.109E-01
RMM:   5    -0.883294975286E+03   -0.15589E-03   -0.52712E-04  1594   0.408E-02    0.445E-02
RMM:   6    -0.883294986591E+03   -0.11304E-04   -0.15418E-04  1455   0.346E-02
  22 F= -.90434304E+03 E0= -.90434304E+03  d E =-.104864E-02  mag=    -2.0000
       N       E                     dE             d eps       ncg     rms          rms(c)
DAV:   1    -0.883294500686E+03    0.47460E-03   -0.51105E-01  2576   0.757E-01    0.163E-01
RMM:   2    -0.883295619209E+03   -0.11185E-02   -0.11998E-02  2859   0.176E-01    0.142E-01
RMM:   3    -0.883295692627E+03   -0.73418E-04   -0.11100E-03  1802   0.495E-02    0.131E-01
RMM:   4    -0.883295730037E+03   -0.37410E-04   -0.44475E-04  1448   0.417E-02
  23 F= -.90434341E+03 E0= -.90434341E+03  d E =-.142319E-02  mag=    -2.0000
       N       E                     dE             d eps       ncg     rms          rms(c)
DAV:   1    -0.883295827750E+03   -0.13512E-03   -0.30530E-02  2776   0.187E-01    0.439E-02
RMM:   2    -0.883295916172E+03   -0.88422E-04   -0.75398E-04  1620   0.510E-02
  24 F= -.90434369E+03 E0= -.90434369E+03  d E =-.275607E-03  mag=    -2.0000
       N       E                     dE             d eps       ncg     rms          rms(c)
DAV:   1    -0.883295953607E+03   -0.12586E-03   -0.59937E-03  2928   0.883E-02    0.347E-02
RMM:   2    -0.883295968660E+03   -0.15053E-04   -0.18606E-04  1322   0.275E-02
  25 F= -.90434378E+03 E0= -.90434378E+03  d E =-.366840E-03  mag=    -2.0000
       N       E                     dE             d eps       ncg     rms          rms(c)
DAV:   1    -0.883295952492E+03    0.11149E-05   -0.21614E-02  2432   0.156E-01    0.496E-02
RMM:   2    -0.883295988694E+03   -0.36202E-04   -0.54925E-04  1482   0.472E-02
  26 F= -.90434388E+03 E0= -.90434388E+03  d E =-.464397E-03  mag=    -2.0000
       N       E                     dE             d eps       ncg     rms          rms(c)
DAV:   1    -0.883296003315E+03   -0.50823E-04   -0.51241E-03  2976   0.825E-02    0.457E-02
RMM:   2    -0.883296018782E+03   -0.15466E-04   -0.18515E-04  1337   0.297E-02
  27 F= -.90434394E+03 E0= -.90434394E+03  d E =-.530501E-03  mag=    -2.0000
       N       E                     dE             d eps       ncg     rms          rms(c)
DAV:   1    -0.883295973496E+03    0.29820E-04   -0.18613E-02  2448   0.145E-01    0.548E-02
RMM:   2    -0.883296013078E+03   -0.39582E-04   -0.49273E-04  1446   0.445E-02
  28 F= -.90434401E+03 E0= -.90434401E+03  d E =-.596844E-03  mag=    -2.0000
       N       E                     dE             d eps       ncg     rms          rms(c)
DAV:   1    -0.883296179808E+03   -0.20631E-03   -0.22657E-03  2384   0.587E-02    0.413E-02
RMM:   2    -0.883296195901E+03   -0.16093E-04   -0.12301E-04  1267   0.260E-02
  29 F= -.90434418E+03 E0= -.90434418E+03  d E =-.168437E-03  mag=    -2.0000
       N       E                     dE             d eps       ncg     rms          rms(c)
DAV:   1    -0.883296404297E+03   -0.22449E-03   -0.87903E-03  2688   0.103E-01    0.399E-02
RMM:   2    -0.883296424308E+03   -0.20011E-04   -0.26853E-04  1285   0.335E-02
  30 F= -.90434438E+03 E0= -.90434438E+03  d E =-.368498E-03  mag=    -2.0000
       N       E                     dE             d eps       ncg     rms          rms(c)
DAV:   1    -0.883296401294E+03    0.30037E-05   -0.33893E-02  2392   0.196E-01    0.816E-02
RMM:   2    -0.883296473788E+03   -0.72494E-04   -0.11661E-03  1959   0.639E-02    0.755E-02
RMM:   3    -0.883296488805E+03   -0.15017E-04   -0.21913E-04  1421   0.298E-02
  31 F= -.90434439E+03 E0= -.90434439E+03  d E =-.376258E-03  mag=    -2.0000
       N       E                     dE             d eps       ncg     rms          rms(c)
DAV:   1    -0.883296502744E+03   -0.28956E-04   -0.12767E-02  3088   0.123E-01    0.356E-02
RMM:   2    -0.883296557851E+03   -0.55107E-04   -0.42620E-04  1479   0.358E-02
  32 F= -.90434449E+03 E0= -.90434449E+03  d E =-.479824E-03  mag=    -2.0000
       N       E                     dE             d eps       ncg     rms          rms(c)
DAV:   1    -0.883296576690E+03   -0.73945E-04   -0.28862E-03  2360   0.613E-02    0.201E-02
RMM:   2    -0.883296588707E+03   -0.12018E-04   -0.11049E-04  1229   0.224E-02
  33 F= -.90434450E+03 E0= -.90434450E+03  d E =-.493421E-03  mag=    -2.0000
       N       E                     dE             d eps       ncg     rms          rms(c)
DAV:   1    -0.883296595925E+03   -0.19236E-04   -0.84825E-04  1816   0.328E-02    0.130E-02
RMM:   2    -0.883296604728E+03   -0.88025E-05   -0.34448E-05  1180   0.124E-02
  34 F= -.90434453E+03 E0= -.90434453E+03  d E =-.519057E-03  mag=    -2.0000
       N       E                     dE             d eps       ncg     rms          rms(c)
DAV:   1    -0.883296731853E+03   -0.13593E-03   -0.32304E-03  2360   0.670E-02    0.188E-02
RMM:   2    -0.883296743150E+03   -0.11296E-04   -0.91951E-05  1209   0.212E-02
  35 F= -.90434466E+03 E0= -.90434466E+03  d E =-.129137E-03  mag=    -2.0000
       N       E                     dE             d eps       ncg     rms          rms(c)
DAV:   1    -0.883296887407E+03   -0.15555E-03   -0.86702E-03  2672   0.111E-01    0.415E-02
RMM:   2    -0.883296899510E+03   -0.12103E-04   -0.24117E-04  1301   0.357E-02
  36 F= -.90434480E+03 E0= -.90434480E+03  d E =-.270979E-03  mag=    -2.0000
       N       E                     dE             d eps       ncg     rms          rms(c)
DAV:   1    -0.883296962438E+03   -0.75031E-04   -0.33740E-02  2416   0.217E-01    0.838E-02
RMM:   2    -0.883297047732E+03   -0.85294E-04   -0.11457E-03  2124   0.707E-02    0.899E-02
RMM:   3    -0.883297070869E+03   -0.23137E-04   -0.27399E-04  1508   0.301E-02
  37 F= -.90434494E+03 E0= -.90434494E+03  d E =-.413160E-03  mag=    -2.0000
       N       E                     dE             d eps       ncg     rms          rms(c)
DAV:   1    -0.883297056459E+03   -0.87274E-05   -0.18072E-03  2512   0.603E-02    0.682E-02
RMM:   2    -0.883297077052E+03   -0.20593E-04   -0.95694E-05  1352   0.263E-02
  38 F= -.90434496E+03 E0= -.90434495E+03  d E =-.426152E-03  mag=    -2.0000
       N       E                     dE             d eps       ncg     rms          rms(c)
DAV:   1    -0.883297112974E+03   -0.56515E-04   -0.95357E-04  1944   0.403E-02    0.422E-02
RMM:   2    -0.883297119965E+03   -0.69903E-05   -0.42148E-05  1205   0.165E-02
  39 F= -.90434499E+03 E0= -.90434499E+03  d E =-.463783E-03  mag=    -2.0000
       N       E                     dE             d eps       ncg     rms          rms(c)
DAV:   1    -0.883297209378E+03   -0.96404E-04   -0.45422E-03  2392   0.796E-02    0.347E-02
RMM:   2    -0.883297222384E+03   -0.13006E-04   -0.12728E-04  1230   0.248E-02
  40 F= -.90434512E+03 E0= -.90434512E+03  d E =-.131746E-03  mag=    -2.0000
       N       E                     dE             d eps       ncg     rms          rms(c)
DAV:   1    -0.883297285176E+03   -0.75798E-04   -0.40832E-02  2384   0.235E-01    0.685E-02
RMM:   2    -0.883297365247E+03   -0.80072E-04   -0.10868E-03  2036   0.684E-02    0.726E-02
RMM:   3    -0.883297383796E+03   -0.18549E-04   -0.22676E-04  1419   0.281E-02
  41 F= -.90434537E+03 E0= -.90434537E+03  d E =-.381175E-03  mag=    -2.0000
       N       E                     dE             d eps       ncg     rms          rms(c)
DAV:   1    -0.883296910065E+03    0.45518E-03   -0.16186E-01  2400   0.466E-01    0.137E-01
RMM:   2    -0.883297263036E+03   -0.35297E-03   -0.46473E-03  2616   0.133E-01    0.141E-01
RMM:   3    -0.883297327869E+03   -0.64832E-04   -0.84324E-04  1974   0.411E-02
  42 F= -.90434549E+03 E0= -.90434549E+03  d E =-.501296E-03  mag=    -2.0000
       N       E                     dE             d eps       ncg     rms          rms(c)
DAV:   1    -0.883297291379E+03   -0.28343E-04   -0.46108E-02  3008   0.253E-01    0.841E-02
RMM:   2    -0.883297484297E+03   -0.19292E-03   -0.14750E-03  2179   0.714E-02    0.224E-02
RMM:   3    -0.883297519201E+03   -0.34904E-04   -0.17854E-04  1442   0.291E-02
  43 F= -.90434559E+03 E0= -.90434559E+03  d E =-.599187E-03  mag=    -2.0000
       N       E                     dE             d eps       ncg     rms          rms(c)
DAV:   1    -0.883297469057E+03    0.15240E-04   -0.15508E-02  3024   0.146E-01    0.416E-02
RMM:   2    -0.883297490871E+03   -0.21814E-04   -0.39531E-04  1471   0.389E-02
  44 F= -.90434562E+03 E0= -.90434562E+03  d E =-.626436E-03  mag=    -2.0000
       N       E                     dE             d eps       ncg     rms          rms(c)
DAV:   1    -0.883297514431E+03   -0.45374E-04   -0.37739E-03  2408   0.749E-02    0.216E-02
RMM:   2    -0.883297542455E+03   -0.28024E-04   -0.93898E-05  1226   0.223E-02
  45 F= -.90434564E+03 E0= -.90434564E+03  d E =-.650215E-03  mag=    -2.0000
       N       E                     dE             d eps       ncg     rms          rms(c)
DAV:   1    -0.883297544435E+03   -0.30005E-04   -0.12116E-03  1872   0.423E-02    0.184E-02
RMM:   2    -0.883297551041E+03   -0.66060E-05   -0.37537E-05  1189   0.142E-02
  46 F= -.90434567E+03 E0= -.90434567E+03  d E =-.674764E-03  mag=    -2.0000
       N       E                     dE             d eps       ncg     rms          rms(c)
DAV:   1    -0.883297618044E+03   -0.73608E-04   -0.98583E-03  2400   0.108E-01    0.321E-02
RMM:   2    -0.883297638665E+03   -0.20622E-04   -0.25218E-04  1239   0.313E-02
  47 F= -.90434579E+03 E0= -.90434579E+03  d E =-.124966E-03  mag=    -2.0000
       N       E                     dE             d eps       ncg     rms          rms(c)
DAV:   1    -0.883297662315E+03   -0.44271E-04   -0.14015E-02  2688   0.130E-01    0.467E-02
RMM:   2    -0.883297682445E+03   -0.20131E-04   -0.38485E-04  1342   0.361E-02
  48 F= -.90434588E+03 E0= -.90434588E+03  d E =-.212996E-03  mag=    -2.0000
       N       E                     dE             d eps       ncg     rms          rms(c)
DAV:   1    -0.883297423035E+03    0.23928E-03   -0.54417E-02  2376   0.252E-01    0.803E-02
RMM:   2    -0.883297550753E+03   -0.12772E-03   -0.16882E-03  2209   0.724E-02    0.726E-02
RMM:   3    -0.883297577493E+03   -0.26740E-04   -0.31816E-04  1459   0.298E-02
  49 F= -.90434586E+03 E0= -.90434586E+03  d E =-.196581E-03  mag=    -2.0000
       N       E                     dE             d eps       ncg     rms          rms(c)
DAV:   1    -0.883297627046E+03   -0.76293E-04   -0.34001E-02  2896   0.201E-01    0.423E-02
RMM:   2    -0.883297734343E+03   -0.10730E-03   -0.90142E-04  1749   0.511E-02    0.276E-02
RMM:   3    -0.883297756100E+03   -0.21757E-04   -0.14146E-04  1260   0.274E-02
  50 F= -.90434597E+03 E0= -.90434597E+03  d E =-.305687E-03  mag=    -2.0000
       N       E                     dE             d eps       ncg     rms          rms(c)
DAV:   1    -0.883297716815E+03    0.17528E-04   -0.81014E-03  2728   0.987E-02    0.231E-02
RMM:   2    -0.883297742009E+03   -0.25194E-04   -0.22153E-04  1257   0.275E-02
  51 F= -.90434599E+03 E0= -.90434599E+03  d E =-.326339E-03  mag=    -2.0000
       N       E                     dE             d eps       ncg     rms          rms(c)
DAV:   1    -0.883297766772E+03   -0.49957E-04   -0.17731E-03  1848   0.480E-02    0.120E-02
RMM:   2    -0.883297778833E+03   -0.12061E-04   -0.53235E-05  1166   0.162E-02
  52 F= -.90434601E+03 E0= -.90434601E+03  d E =-.346466E-03  mag=    -2.0000
       N       E                     dE             d eps       ncg     rms          rms(c)
DAV:   1    -0.883297778882E+03   -0.12110E-04   -0.22166E-04  1424   0.183E-02    0.991E-03
RMM:   2    -0.883297785246E+03   -0.63646E-05   -0.19739E-05  1127   0.107E-02
  53 F= -.90434603E+03 E0= -.90434603E+03  d E =-.358851E-03  mag=    -2.0000
       N       E                     dE             d eps       ncg     rms          rms(c)
DAV:   1    -0.883297838545E+03   -0.59664E-04   -0.85231E-03  2400   0.993E-02    0.222E-02
RMM:   2    -0.883297854989E+03   -0.16443E-04   -0.19376E-04  1227   0.282E-02
  54 F= -.90434613E+03 E0= -.90434613E+03  d E =-.102698E-03  mag=    -2.0000
       N       E                     dE             d eps       ncg     rms          rms(c)
DAV:   1    -0.883297809721E+03    0.28824E-04   -0.75852E-02  2384   0.295E-01    0.662E-02
RMM:   2    -0.883297962843E+03   -0.15312E-03   -0.19810E-03  2266   0.821E-02    0.476E-02
RMM:   3    -0.883297995217E+03   -0.32374E-04   -0.33398E-04  1317   0.307E-02
  55 F= -.90434637E+03 E0= -.90434637E+03  d E =-.341827E-03  mag=    -2.0000
       N       E                     dE             d eps       ncg     rms          rms(c)
DAV:   1    -0.883297225644E+03    0.73720E-03   -0.30022E-01  2376   0.588E-01    0.130E-01
RMM:   2    -0.883297937186E+03   -0.71154E-03   -0.85058E-03  2738   0.167E-01    0.902E-02
RMM:   3    -0.883298100149E+03   -0.16296E-03   -0.14644E-03  2172   0.509E-02    0.732E-02
RMM:   4    -0.883298166151E+03   -0.66002E-04   -0.32187E-04  1531   0.416E-02
  56 F= -.90434674E+03 E0= -.90434674E+03  d E =-.710807E-03  mag=    -2.0000
       N       E                     dE             d eps       ncg     rms          rms(c)
DAV:   1    -0.883298407952E+03   -0.30780E-03   -0.35319E-02  3256   0.182E-01    0.587E-02
RMM:   2    -0.883298464470E+03   -0.56517E-04   -0.94656E-04  1602   0.500E-02
  57 F= -.90434710E+03 E0= -.90434710E+03  d E =-.360088E-03  mag=    -2.0000
       N       E                     dE             d eps       ncg     rms          rms(c)
DAV:   1    -0.883298510521E+03   -0.10257E-03   -0.23708E-03  2096   0.545E-02    0.403E-02
RMM:   2    -0.883298525195E+03   -0.14674E-04   -0.15507E-04  1239   0.266E-02
  58 F= -.90434717E+03 E0= -.90434717E+03  d E =-.435148E-03  mag=    -2.0000
       N       E                     dE             d eps       ncg     rms          rms(c)
DAV:   1    -0.883298523915E+03   -0.13395E-04   -0.77408E-03  2200   0.865E-02    0.419E-02
RMM:   2    -0.883298541447E+03   -0.17531E-04   -0.24496E-04  1257   0.321E-02
  59 F= -.90434722E+03 E0= -.90434722E+03  d E =-.480072E-03  mag=    -2.0000
       N       E                     dE             d eps       ncg     rms          rms(c)
DAV:   1    -0.883298693143E+03   -0.16923E-03   -0.29759E-02  2464   0.171E-01    0.546E-02
RMM:   2    -0.883298742038E+03   -0.48895E-04   -0.75359E-04  1457   0.461E-02
  60 F= -.90434746E+03 E0= -.90434746E+03  d E =-.240000E-03  mag=    -2.0000
       N       E                     dE             d eps       ncg     rms          rms(c)
DAV:   1    -0.883298659919E+03    0.33224E-04   -0.19175E-01  2368   0.430E-01    0.121E-01
RMM:   2    -0.883299048659E+03   -0.38874E-03   -0.47765E-03  2479   0.106E-01    0.970E-02
RMM:   3    -0.883299117210E+03   -0.68551E-04   -0.60985E-04  1712   0.350E-02
  61 F= -.90434793E+03 E0= -.90434793E+03  d E =-.715435E-03  mag=    -2.0000
       N       E                     dE             d eps       ncg     rms          rms(c)
DAV:   1    -0.883297526273E+03    0.15224E-02   -0.75734E-01  2384   0.852E-01    0.214E-01
RMM:   2    -0.883299027969E+03   -0.15017E-02   -0.17402E-02  2836   0.197E-01    0.162E-01
RMM:   3    -0.883299269103E+03   -0.24113E-03   -0.24230E-03  2218   0.591E-02    0.136E-01
RMM:   4    -0.883299408107E+03   -0.13900E-03   -0.53290E-04  1688   0.443E-02    0.883E-02
RMM:   5    -0.883299533207E+03   -0.12510E-03   -0.37801E-04  1566   0.333E-02    0.345E-02
RMM:   6    -0.883299564200E+03   -0.30993E-04   -0.10561E-04  1446   0.282E-02
  62 F= -.90434858E+03 E0= -.90434858E+03  d E =-.136340E-02  mag=    -2.0000
       N       E                     dE             d eps       ncg     rms          rms(c)
DAV:   1    -0.883299560359E+03   -0.27151E-04   -0.91625E-02  2784   0.292E-01    0.694E-02
RMM:   2    -0.883299743786E+03   -0.18343E-03   -0.21440E-03  2131   0.677E-02    0.494E-02
RMM:   3    -0.883299778378E+03   -0.34592E-04   -0.29143E-04  1396   0.295E-02
  63 F= -.90434891E+03 E0= -.90434891E+03  d E =-.331928E-03  mag=    -2.0000
       N       E                     dE             d eps       ncg     rms          rms(c)
DAV:   1    -0.883299693276E+03    0.50510E-04   -0.12747E-01  2488   0.346E-01    0.920E-02
RMM:   2    -0.883299922010E+03   -0.22873E-03   -0.30105E-03  2337   0.798E-02    0.698E-02
RMM:   3    -0.883299959478E+03   -0.37468E-04   -0.36011E-04  1509   0.307E-02
  64 F= -.90434923E+03 E0= -.90434923E+03  d E =-.651993E-03  mag=    -2.0000
       N       E                     dE             d eps       ncg     rms          rms(c)
DAV:   1    -0.883298925959E+03    0.99605E-03   -0.50674E-01  2416   0.685E-01    0.171E-01
RMM:   2    -0.883299873005E+03   -0.94705E-03   -0.11394E-02  2763   0.156E-01    0.125E-01
RMM:   3    -0.883300042899E+03   -0.16989E-03   -0.16022E-03  1956   0.484E-02    0.103E-01
RMM:   4    -0.883300148465E+03   -0.10557E-03   -0.34000E-04  1552   0.405E-02    0.654E-02
RMM:   5    -0.883300269719E+03   -0.12125E-03   -0.31320E-04  1515   0.277E-02    0.308E-02
RMM:   6    -0.883300288759E+03   -0.19040E-04   -0.82818E-05  1426   0.271E-02
  65 F= -.90434984E+03 E0= -.90434984E+03  d E =-.125951E-02  mag=    -2.0000
       N       E                     dE             d eps       ncg     rms          rms(c)
DAV:   1    -0.883294772415E+03    0.54973E-02   -0.20391E+00  2368   0.137E+00    0.312E-01
RMM:   2    -0.883298897819E+03   -0.41254E-02   -0.45279E-02  2972   0.285E-01    0.214E-01
RMM:   3    -0.883299266599E+03   -0.36878E-03   -0.44042E-03  2678   0.870E-02    0.180E-01
RMM:   4    -0.883299605371E+03   -0.33877E-03   -0.13633E-03  2007   0.544E-02    0.866E-02
RMM:   5    -0.883299775009E+03   -0.16964E-03   -0.40261E-04  1529   0.376E-02    0.388E-02
RMM:   6    -0.883299807854E+03   -0.32845E-04   -0.18843E-04  1477   0.299E-02
  66 F= -.90434992E+03 E0= -.90434992E+03  d E =-.133606E-02  mag=    -2.0000
       N       E                     dE             d eps       ncg     rms          rms(c)
DAV:   1    -0.883299558589E+03    0.21642E-03   -0.27186E-01  2696   0.499E-01    0.115E-01
RMM:   2    -0.883300085573E+03   -0.52698E-03   -0.59488E-03  2646   0.108E-01    0.805E-02
RMM:   3    -0.883300128331E+03   -0.42758E-04   -0.57157E-04  1505   0.327E-02
  67 F= -.90435003E+03 E0= -.90435003E+03  d E =-.145284E-02  mag=    -2.0000
       N       E                     dE             d eps       ncg     rms          rms(c)
DAV:   1    -0.883299872109E+03    0.21346E-03   -0.56488E-02  2680   0.231E-01    0.510E-02
RMM:   2    -0.883300052744E+03   -0.18064E-03   -0.13408E-03  1739   0.531E-02    0.200E-02
RMM:   3    -0.883300084989E+03   -0.32245E-04   -0.17901E-04  1266   0.283E-02
  68 F= -.90435008E+03 E0= -.90435008E+03  d E =-.150165E-02  mag=    -2.0000
       N       E                     dE             d eps       ncg     rms          rms(c)
DAV:   1    -0.883300125783E+03   -0.73039E-04   -0.25307E-02  2552   0.153E-01    0.360E-02
RMM:   2    -0.883300172367E+03   -0.46584E-04   -0.51957E-04  1331   0.363E-02
  69 F= -.90435011E+03 E0= -.90435010E+03  d E =-.152617E-02  mag=    -2.0000
       N       E                     dE             d eps       ncg     rms          rms(c)
DAV:   1    -0.883300133222E+03   -0.74388E-05   -0.62048E-03  2088   0.778E-02    0.175E-02
RMM:   2    -0.883300159346E+03   -0.26123E-04   -0.14739E-04  1252   0.217E-02
  70 F= -.90435013E+03 E0= -.90435012E+03  d E =-.154458E-02  mag=    -2.0000
       N       E                     dE             d eps       ncg     rms          rms(c)
DAV:   1    -0.883300189359E+03   -0.56137E-04   -0.17643E-03  1848   0.413E-02    0.134E-02
RMM:   2    -0.883300195591E+03   -0.62322E-05   -0.41469E-05  1201   0.124E-02
  71 F= -.90435014E+03 E0= -.90435014E+03  d E =-.156379E-02  mag=    -2.0000
       N       E                     dE             d eps       ncg     rms          rms(c)
DAV:   1    -0.883300106504E+03    0.82855E-04   -0.97425E-02  2368   0.290E-01    0.647E-02
RMM:   2    -0.883300291414E+03   -0.18491E-03   -0.21165E-03  1924   0.656E-02    0.397E-02
RMM:   3    -0.883300311685E+03   -0.20270E-04   -0.24167E-04  1247   0.291E-02
  72 F= -.90435040E+03 E0= -.90435039E+03  d E =-.251912E-03  mag=    -2.0000
       N       E                     dE             d eps       ncg     rms          rms(c)
DAV:   1    -0.883300292371E+03   -0.95692E-06   -0.40824E-02  2704   0.194E-01    0.565E-02
RMM:   2    -0.883300356156E+03   -0.63785E-04   -0.96869E-04  1535   0.479E-02
  73 F= -.90435053E+03 E0= -.90435053E+03  d E =-.383727E-03  mag=    -2.0000
       N       E                     dE             d eps       ncg     rms          rms(c)
DAV:   1    -0.883300563835E+03   -0.27146E-03   -0.43114E-03  2544   0.787E-02    0.352E-02
RMM:   2    -0.883300589908E+03   -0.26073E-04   -0.14685E-04  1252   0.262E-02
  74 F= -.90435076E+03 E0= -.90435076E+03  d E =-.231801E-03  mag=    -2.0000
       N       E                     dE             d eps       ncg     rms          rms(c)
DAV:   1    -0.883300827423E+03   -0.26359E-03   -0.17169E-02  2544   0.152E-01    0.553E-02
RMM:   2    -0.883300872470E+03   -0.45047E-04   -0.48080E-04  1439   0.456E-02
  75 F= -.90435104E+03 E0= -.90435104E+03  d E =-.510375E-03  mag=    -2.0000
       N       E                     dE             d eps       ncg     rms          rms(c)
DAV:   1    -0.883300814810E+03    0.12612E-04   -0.67339E-02  2408   0.298E-01    0.118E-01
RMM:   2    -0.883300966143E+03   -0.15133E-03   -0.22897E-03  2383   0.910E-02    0.111E-01
RMM:   3    -0.883300988656E+03   -0.22512E-04   -0.38343E-04  1632   0.327E-02
  76 F= -.90435115E+03 E0= -.90435114E+03  d E =-.618761E-03  mag=    -1.9999
       N       E                     dE             d eps       ncg     rms          rms(c)
DAV:   1    -0.883301000039E+03   -0.33895E-04   -0.17612E-02  2984   0.157E-01    0.462E-02
RMM:   2    -0.883301069740E+03   -0.69702E-04   -0.58913E-04  1637   0.468E-02
  77 F= -.90435123E+03 E0= -.90435123E+03  d E =-.703794E-03  mag=    -2.0000
       N       E                     dE             d eps       ncg     rms          rms(c)
DAV:   1    -0.883301089090E+03   -0.89051E-04   -0.42706E-03  2728   0.785E-02    0.224E-02
RMM:   2    -0.883301101578E+03   -0.12488E-04   -0.12581E-04  1282   0.237E-02
  78 F= -.90435126E+03 E0= -.90435126E+03  d E =-.733585E-03  mag=    -2.0000
       N       E                     dE             d eps       ncg     rms          rms(c)
DAV:   1    -0.883301104790E+03   -0.15700E-04   -0.10134E-03  1872   0.393E-02    0.135E-02
RMM:   2    -0.883301114298E+03   -0.95081E-05   -0.39763E-05  1178   0.151E-02
  79 F= -.90435128E+03 E0= -.90435127E+03  d E =-.747327E-03  mag=    -2.0000
       N       E                     dE             d eps       ncg     rms          rms(c)
DAV:   1    -0.883301120158E+03   -0.15368E-04   -0.18556E-04  1360   0.183E-02    0.106E-02
RMM:   2    -0.883301126023E+03   -0.58648E-05   -0.19421E-05  1120   0.111E-02
  80 F= -.90435129E+03 E0= -.90435128E+03  d E =-.758613E-03  mag=    -2.0000
       N       E                     dE             d eps       ncg     rms          rms(c)
DAV:   1    -0.883301318628E+03   -0.19847E-03   -0.14580E-02  2368   0.153E-01    0.457E-02
RMM:   2    -0.883301343289E+03   -0.24661E-04   -0.39600E-04  1534   0.476E-02
  81 F= -.90435150E+03 E0= -.90435150E+03  d E =-.217952E-03  mag=    -2.0000
       N       E                     dE             d eps       ncg     rms          rms(c)
DAV:   1    -0.883301414708E+03   -0.96081E-04   -0.40445E-03  2912   0.846E-02    0.639E-02
RMM:   2    -0.883301432393E+03   -0.17685E-04   -0.15095E-04  1342   0.295E-02
  82 F= -.90435159E+03 E0= -.90435159E+03  d E =-.307399E-03  mag=    -1.9999
       N       E                     dE             d eps       ncg     rms          rms(c)
DAV:   1    -0.883301433885E+03   -0.19177E-04   -0.13743E-02  2440   0.149E-01    0.688E-02
RMM:   2    -0.883301466724E+03   -0.32838E-04   -0.51765E-04  1772   0.518E-02
  83 F= -.90435163E+03 E0= -.90435162E+03  d E =-.342440E-03  mag=    -1.9999
       N       E                     dE             d eps       ncg     rms          rms(c)
DAV:   1    -0.883301473807E+03   -0.39921E-04   -0.39635E-03  3040   0.839E-02    0.506E-02
RMM:   2    -0.883301495531E+03   -0.21725E-04   -0.97474E-05  1312   0.238E-02
  84 F= -.90435166E+03 E0= -.90435165E+03  d E =-.370876E-03  mag=    -1.9999
       N       E                     dE             d eps       ncg     rms          rms(c)
DAV:   1    -0.883301519521E+03   -0.45715E-04   -0.87808E-04  2136   0.407E-02    0.309E-02
RMM:   2    -0.883301525817E+03   -0.62960E-05   -0.43696E-05  1155   0.171E-02
  85 F= -.90435169E+03 E0= -.90435168E+03  d E =-.401345E-03  mag=    -1.9999
       N       E                     dE             d eps       ncg     rms          rms(c)
DAV:   1    -0.883301540505E+03   -0.20983E-04   -0.14051E-04  1368   0.172E-02    0.154E-02
RMM:   2    -0.883301546570E+03   -0.60652E-05   -0.23642E-05  1162   0.135E-02
  86 F= -.90435171E+03 E0= -.90435170E+03  d E =-.422039E-03  mag=    -1.9999
       N       E                     dE             d eps       ncg     rms          rms(c)
DAV:   1    -0.883301689094E+03   -0.14859E-03   -0.19746E-02  2368   0.180E-01    0.490E-02
RMM:   2    -0.883301731503E+03   -0.42409E-04   -0.56565E-04  1779   0.557E-02
  87 F= -.90435190E+03 E0= -.90435190E+03  d E =-.196030E-03  mag=    -2.0000
       N       E                     dE             d eps       ncg     rms          rms(c)
DAV:   1    -0.883301807822E+03   -0.11873E-03   -0.25889E-03  3144   0.691E-02    0.621E-02
RMM:   2    -0.883301817516E+03   -0.96940E-05   -0.10576E-04  1272   0.256E-02
  88 F= -.90435199E+03 E0= -.90435199E+03  d E =-.285558E-03  mag=    -2.0000
       N       E                     dE             d eps       ncg     rms          rms(c)
DAV:   1    -0.883301870429E+03   -0.62607E-04   -0.77571E-03  2512   0.114E-01    0.536E-02
RMM:   2    -0.883301891303E+03   -0.20874E-04   -0.24805E-04  1426   0.403E-02
  89 F= -.90435208E+03 E0= -.90435207E+03  d E =-.366409E-03  mag=    -2.0000
