       N       E                     dE             d eps       ncg     rms          rms(c)
DAV:   1    -0.896850992025E+03   -0.89685E+03   -0.25809E-04  1968   0.432E-02    0.294E-02
RMM:   2    -0.896850999882E+03   -0.78568E-05   -0.97883E-05  1455   0.225E-02
   1 F= -.91789162E+03 E0= -.91789162E+03  d E =-.917892E+03  mag=     0.0000
       N       E                     dE             d eps       ncg     rms          rms(c)
DAV:   1    -0.896851193651E+03   -0.20163E-03   -0.93568E-03  2864   0.976E-02    0.320E-02
RMM:   2    -0.896851211525E+03   -0.17874E-04   -0.22386E-04  1412   0.319E-02
   2 F= -.91789180E+03 E0= -.91789180E+03  d E =-.177578E-03  mag=     0.0000
