 vasp.5.3.5 31Mar14 (build May 27 2014 14:39:49) gamma-only                     
  
 executed on           LinuxIFORT date 2020.12.26  12:13:00
 running on   96 total cores
 distrk:  each k-point on   96 cores,    1 groups
 distr:  one band on NCORES_PER_BAND=   6 cores,   16 groups


--------------------------------------------------------------------------------------------------------


 INCAR:
 POTCAR:    PAW_PBE Ce 23Dec2003                  
 POTCAR:    PAW_PBE O 08Apr2002                   
 POTCAR:    PAW_PBE Pt 04Feb2005                  
 POTCAR:    PAW_PBE O 08Apr2002                   
 POTCAR:    PAW_PBE C 08Apr2002                   
 POTCAR:    PAW_PBE O 08Apr2002                   
 POTCAR:    PAW_PBE Ce 23Dec2003                  
   VRHFIN =Ce : [core= Kr 4d10]                                                 
   LEXCH  = PE                                                                  
   EATOM  =  1063.0861 eV,   78.1346 Ry                                         
                                                                                
   TITEL  = PAW_PBE Ce 23Dec2003                                                
   LULTRA =        F    use ultrasoft PP ?                                      
   IUNSCR =        1    unscreen: 0-lin 1-nonlin 2-no                           
   RPACOR =    1.800    partial core radius                                     
   POMASS =  140.115; ZVAL   =   12.000    mass and valenz                      
   RCORE  =    2.700    outmost cutoff radius                                   
   RWIGS  =    2.500; RWIGS  =    1.323    wigner-seitz radius (au A)           
   ENMAX  =  273.042; ENMIN  =  204.781 eV                                      
   RCLOC  =    1.810    cutoff for local pot                                    
   LCOR   =        T    correct aug charges                                     
   LPAW   =        T    paw PP                                                  
   EAUG   =  580.196                                                            
   DEXC   =    0.000                                                            
   RMAX   =    2.749    core radius for proj-oper                               
   RAUG   =    1.300    factor for augmentation sphere                          
   RDEP   =    2.810    radius for radial grids                                 
   RDEPT  =    2.162    core radius for aug-charge                              
                                                                                
   Atomic configuration                                                         
   14 entries                                                                   
     n  l   j            E        occ.                                          
     1  0  0.50    -40258.9816   2.0000                                         
     2  0  0.50     -6445.4884   2.0000                                         
     2  1  1.50     -5771.7470   6.0000                                         
     3  0  0.50     -1387.9739   2.0000                                         
     3  1  1.50     -1173.8158   6.0000                                         
     3  2  2.50      -869.9108  10.0000                                         
     4  0  0.50      -280.8706   2.0000                                         
     4  1  1.50      -210.9815   6.0000                                         
     4  2  2.50      -110.4558  10.0000                                         
     5  0  0.50       -40.5819   2.0000                                         
     6  0  0.50        -3.7444   2.0000                                         
     5  1  1.50       -23.2188   6.0000                                         
     5  2  2.50        -3.0598   1.0000                                         
     4  3  2.50        -5.3970   1.0000                                         
   Description                                                                  
     l       E           TYP  RCUT    TYP  RCUT                                 
     0    -40.5819164     23  1.500                                             
     0     -3.7443793     23  2.300                                             
     1    -23.2188445     23  2.000                                             
     1     40.8174780     23  2.300                                             
     2     -3.0597556     23  2.500                                             
     2     13.6058260     23  2.500                                             
     3     -5.3970469     23  2.700                                             
     3     -5.8505052     23  2.700                                             
  local pseudopotential read in
  partial core-charges read in
  partial kinetic energy density read in
  atomic valenz-charges read in
  non local Contribution for L=           0  read in
    real space projection operators read in
  non local Contribution for L=           0  read in
    real space projection operators read in
  non local Contribution for L=           1  read in
    real space projection operators read in
  non local Contribution for L=           1  read in
    real space projection operators read in
  non local Contribution for L=           2  read in
    real space projection operators read in
  non local Contribution for L=           2  read in
    real space projection operators read in
  non local Contribution for L=           3  read in
    real space projection operators read in
  non local Contribution for L=           3  read in
    real space projection operators read in
    PAW grid and wavefunctions read in
 
   number of l-projection  operators is LMAX  =           8
   number of lm-projection operators is LMMAX =          32
 
 POTCAR:    PAW_PBE O 08Apr2002                   
   VRHFIN =O: s2p4                                                              
   LEXCH  = PE                                                                  
   EATOM  =   432.3788 eV,   31.7789 Ry                                         
                                                                                
   TITEL  = PAW_PBE O 08Apr2002                                                 
   LULTRA =        F    use ultrasoft PP ?                                      
   IUNSCR =        1    unscreen: 0-lin 1-nonlin 2-no                           
   RPACOR =    1.200    partial core radius                                     
   POMASS =   16.000; ZVAL   =    6.000    mass and valenz                      
   RCORE  =    1.520    outmost cutoff radius                                   
   RWIGS  =    1.550; RWIGS  =    0.820    wigner-seitz radius (au A)           
   ENMAX  =  400.000; ENMIN  =  300.000 eV                                      
   ICORE  =        2    local potential                                         
   LCOR   =        T    correct aug charges                                     
   LPAW   =        T    paw PP                                                  
   EAUG   =  605.392                                                            
   DEXC   =    0.000                                                            
   RMAX   =    1.553    core radius for proj-oper                               
   RAUG   =    1.300    factor for augmentation sphere                          
   RDEP   =    1.550    radius for radial grids                                 
   RDEPT  =    1.329    core radius for aug-charge                              
                                                                                
   Atomic configuration                                                         
    4 entries                                                                   
     n  l   j            E        occ.                                          
     1  0  0.50      -514.6923   2.0000                                         
     2  0  0.50       -23.9615   2.0000                                         
     2  1  0.50        -9.0305   4.0000                                         
     3  2  1.50        -9.5241   0.0000                                         
   Description                                                                  
     l       E           TYP  RCUT    TYP  RCUT                                 
     0    -23.9615318     23  1.200                                             
     0     -9.5240782     23  1.200                                             
     1     -9.0304911     23  1.520                                             
     1      8.1634956     23  1.520                                             
     2     -9.5240782      7  1.500                                             
  local pseudopotential read in
  partial core-charges read in
  partial kinetic energy density read in
  kinetic energy density of atom read in
  atomic valenz-charges read in
  non local Contribution for L=           0  read in
    real space projection operators read in
  non local Contribution for L=           0  read in
    real space projection operators read in
  non local Contribution for L=           1  read in
    real space projection operators read in
  non local Contribution for L=           1  read in
    real space projection operators read in
    PAW grid and wavefunctions read in
 
   number of l-projection  operators is LMAX  =           4
   number of lm-projection operators is LMMAX =           8
 
 POTCAR:    PAW_PBE Pt 04Feb2005                  
   VRHFIN =Pt: s1d9                                                             
   LEXCH  = PE                                                                  
   EATOM  =   729.1176 eV,   53.5886 Ry                                         
                                                                                
   TITEL  = PAW_PBE Pt 04Feb2005                                                
   LULTRA =        F    use ultrasoft PP ?                                      
   IUNSCR =        1    unscreen: 0-lin 1-nonlin 2-no                           
   RPACOR =    2.330    partial core radius                                     
   POMASS =  195.080; ZVAL   =   10.000    mass and valenz                      
   RCORE  =    2.600    outmost cutoff radius                                   
   RWIGS  =    2.750; RWIGS  =    1.455    wigner-seitz radius (au A)           
   ENMAX  =  230.283; ENMIN  =  172.712 eV                                      
   ICORE  =        3    local potential                                         
   LCOR   =        T    correct aug charges                                     
   LPAW   =        T    paw PP                                                  
   EAUG   =  358.966                                                            
   DEXC   =    0.000                                                            
   RMAX   =    2.658    core radius for proj-oper                               
   RAUG   =    1.300    factor for augmentation sphere                          
   RDEP   =    2.761    radius for radial grids                                 
   RDEPT  =    2.203    core radius for aug-charge                              
                                                                                
   Atomic configuration                                                         
   16 entries                                                                   
     n  l   j            E        occ.                                          
     1  0  0.50    -78401.1885   2.0000                                         
     2  0  0.50    -13770.7750   2.0000                                         
     2  1  1.50    -11931.0468   6.0000                                         
     3  0  0.50     -3234.7234   2.0000                                         
     3  1  1.50     -2699.2216   6.0000                                         
     3  2  2.50     -2119.5714  10.0000                                         
     4  0  0.50      -695.1528   2.0000                                         
     4  1  1.50      -519.6034   6.0000                                         
     4  2  2.50      -306.6786  10.0000                                         
     4  3  3.50       -70.1041  14.0000                                         
     5  0  0.50      -101.7747   2.0000                                         
     5  1  1.50       -55.9873   6.0000                                         
     5  2  2.50        -6.1423   9.0000                                         
     6  0  0.50        -5.6573   1.0000                                         
     6  1  1.50        -6.8029   0.0000                                         
     5  3  2.50        -1.3606   0.0000                                         
   Description                                                                  
     l       E           TYP  RCUT    TYP  RCUT                                 
     2     -6.1423404     23  2.500                                             
     2     -7.5029230     23  2.500                                             
     0     -5.6573207     23  2.500                                             
     0      0.7416693     23  2.500                                             
     1     -2.7211652     23  2.600                                             
     1     20.4087390     23  2.600                                             
     3     -1.3605826     23  2.500                                             
  local pseudopotential read in
  partial core-charges read in
  partial kinetic energy density read in
  atomic valenz-charges read in
  non local Contribution for L=           2  read in
    real space projection operators read in
  non local Contribution for L=           2  read in
    real space projection operators read in
  non local Contribution for L=           0  read in
    real space projection operators read in
  non local Contribution for L=           0  read in
    real space projection operators read in
  non local Contribution for L=           1  read in
    real space projection operators read in
  non local Contribution for L=           1  read in
    real space projection operators read in
    PAW grid and wavefunctions read in
 
   number of l-projection  operators is LMAX  =           6
   number of lm-projection operators is LMMAX =          18
 
 POTCAR:    PAW_PBE O 08Apr2002                   
   VRHFIN =O: s2p4                                                              
   LEXCH  = PE                                                                  
   EATOM  =   432.3788 eV,   31.7789 Ry                                         
                                                                                
   TITEL  = PAW_PBE O 08Apr2002                                                 
   LULTRA =        F    use ultrasoft PP ?                                      
   IUNSCR =        1    unscreen: 0-lin 1-nonlin 2-no                           
   RPACOR =    1.200    partial core radius                                     
   POMASS =   16.000; ZVAL   =    6.000    mass and valenz                      
   RCORE  =    1.520    outmost cutoff radius                                   
   RWIGS  =    1.550; RWIGS  =    0.820    wigner-seitz radius (au A)           
   ENMAX  =  400.000; ENMIN  =  300.000 eV                                      
   ICORE  =        2    local potential                                         
   LCOR   =        T    correct aug charges                                     
   LPAW   =        T    paw PP                                                  
   EAUG   =  605.392                                                            
   DEXC   =    0.000                                                            
   RMAX   =    1.553    core radius for proj-oper                               
   RAUG   =    1.300    factor for augmentation sphere                          
   RDEP   =    1.550    radius for radial grids                                 
   RDEPT  =    1.329    core radius for aug-charge                              
                                                                                
   Atomic configuration                                                         
    4 entries                                                                   
     n  l   j            E        occ.                                          
     1  0  0.50      -514.6923   2.0000                                         
     2  0  0.50       -23.9615   2.0000                                         
     2  1  0.50        -9.0305   4.0000                                         
     3  2  1.50        -9.5241   0.0000                                         
   Description                                                                  
     l       E           TYP  RCUT    TYP  RCUT                                 
     0    -23.9615318     23  1.200                                             
     0     -9.5240782     23  1.200                                             
     1     -9.0304911     23  1.520                                             
     1      8.1634956     23  1.520                                             
     2     -9.5240782      7  1.500                                             
  local pseudopotential read in
  partial core-charges read in
  partial kinetic energy density read in
  kinetic energy density of atom read in
  atomic valenz-charges read in
  non local Contribution for L=           0  read in
    real space projection operators read in
  non local Contribution for L=           0  read in
    real space projection operators read in
  non local Contribution for L=           1  read in
    real space projection operators read in
  non local Contribution for L=           1  read in
    real space projection operators read in
    PAW grid and wavefunctions read in
 
   number of l-projection  operators is LMAX  =           4
   number of lm-projection operators is LMMAX =           8
 
 POTCAR:    PAW_PBE C 08Apr2002                   
   VRHFIN =C: s2p2                                                              
   LEXCH  = PE                                                                  
   EATOM  =   147.1560 eV,   10.8157 Ry                                         
                                                                                
   TITEL  = PAW_PBE C 08Apr2002                                                 
   LULTRA =        F    use ultrasoft PP ?                                      
   IUNSCR =        1    unscreen: 0-lin 1-nonlin 2-no                           
   RPACOR =    1.200    partial core radius                                     
   POMASS =   12.011; ZVAL   =    4.000    mass and valenz                      
   RCORE  =    1.500    outmost cutoff radius                                   
   RWIGS  =    1.630; RWIGS  =    0.863    wigner-seitz radius (au A)           
   ENMAX  =  400.000; ENMIN  =  300.000 eV                                      
   ICORE  =        2    local potential                                         
   LCOR   =        T    correct aug charges                                     
   LPAW   =        T    paw PP                                                  
   EAUG   =  644.873                                                            
   DEXC   =    0.000                                                            
   RMAX   =    1.529    core radius for proj-oper                               
   RAUG   =    1.300    factor for augmentation sphere                          
   RDEP   =    1.501    radius for radial grids                                 
   RDEPT  =    1.300    core radius for aug-charge                              
                                                                                
   Atomic configuration                                                         
    4 entries                                                                   
     n  l   j            E        occ.                                          
     1  0  0.50      -273.3789   2.0000                                         
     2  0  0.50       -13.7508   2.0000                                         
     2  1  0.50        -5.2854   2.0000                                         
     3  2  1.50        -5.4423   0.0000                                         
   Description                                                                  
     l       E           TYP  RCUT    TYP  RCUT                                 
     0    -13.7508458     23  1.200                                             
     0     -8.2022199     23  1.200                                             
     1     -5.2854383     23  1.500                                             
     1     34.0145650     23  1.500                                             
     2     -5.4423304      7  1.500                                             
  local pseudopotential read in
  partial core-charges read in
  partial kinetic energy density read in
  atomic valenz-charges read in
  non local Contribution for L=           0  read in
    real space projection operators read in
  non local Contribution for L=           0  read in
    real space projection operators read in
  non local Contribution for L=           1  read in
    real space projection operators read in
  non local Contribution for L=           1  read in
    real space projection operators read in
    PAW grid and wavefunctions read in
 
   number of l-projection  operators is LMAX  =           4
   number of lm-projection operators is LMMAX =           8
 
 POTCAR:    PAW_PBE O 08Apr2002                   
   VRHFIN =O: s2p4                                                              
   LEXCH  = PE                                                                  
   EATOM  =   432.3788 eV,   31.7789 Ry                                         
                                                                                
   TITEL  = PAW_PBE O 08Apr2002                                                 
   LULTRA =        F    use ultrasoft PP ?                                      
   IUNSCR =        1    unscreen: 0-lin 1-nonlin 2-no                           
   RPACOR =    1.200    partial core radius                                     
   POMASS =   16.000; ZVAL   =    6.000    mass and valenz                      
   RCORE  =    1.520    outmost cutoff radius                                   
   RWIGS  =    1.550; RWIGS  =    0.820    wigner-seitz radius (au A)           
   ENMAX  =  400.000; ENMIN  =  300.000 eV                                      
   ICORE  =        2    local potential                                         
   LCOR   =        T    correct aug charges                                     
   LPAW   =        T    paw PP                                                  
   EAUG   =  605.392                                                            
   DEXC   =    0.000                                                            
   RMAX   =    1.553    core radius for proj-oper                               
   RAUG   =    1.300    factor for augmentation sphere                          
   RDEP   =    1.550    radius for radial grids                                 
   RDEPT  =    1.329    core radius for aug-charge                              
                                                                                
   Atomic configuration                                                         
    4 entries                                                                   
     n  l   j            E        occ.                                          
     1  0  0.50      -514.6923   2.0000                                         
     2  0  0.50       -23.9615   2.0000                                         
     2  1  0.50        -9.0305   4.0000                                         
     3  2  1.50        -9.5241   0.0000                                         
   Description                                                                  
     l       E           TYP  RCUT    TYP  RCUT                                 
     0    -23.9615318     23  1.200                                             
     0     -9.5240782     23  1.200                                             
     1     -9.0304911     23  1.520                                             
     1      8.1634956     23  1.520                                             
     2     -9.5240782      7  1.500                                             
  local pseudopotential read in
  partial core-charges read in
  partial kinetic energy density read in
  kinetic energy density of atom read in
  atomic valenz-charges read in
  non local Contribution for L=           0  read in
    real space projection operators read in
  non local Contribution for L=           0  read in
    real space projection operators read in
  non local Contribution for L=           1  read in
    real space projection operators read in
  non local Contribution for L=           1  read in
    real space projection operators read in
    PAW grid and wavefunctions read in
 
   number of l-projection  operators is LMAX  =           4
   number of lm-projection operators is LMMAX =           8
 
 Optimization of the real space projectors (new method)

 maximal supplied QI-value         = 13.98
 optimisation between [QCUT,QGAM] = [ 10.21, 20.42] = [ 29.18,116.73] Ry 
 Optimized for a Real-space Cutoff    1.65 Angstroem

   l    n(q)    QCUT    max X(q) W(low)/X(q) W(high)/X(q)  e(spline) 
   0     10    10.208     8.553    0.18E-04    0.75E-05    0.12E-06
   0     10    10.208     8.106    0.26E-04    0.16E-04    0.24E-06
   1     10    10.208     4.160    0.93E-05    0.96E-06    0.75E-07
   1     10    10.208     3.597    0.23E-04    0.26E-04    0.15E-06
   2      9    10.208     8.183    0.11E-03    0.28E-03    0.51E-06
   2      9    10.208     6.077    0.74E-04    0.19E-03    0.37E-06
   3      9    10.208   116.013    0.19E-03    0.98E-05    0.18E-06
   3      9    10.208   108.937    0.19E-03    0.10E-04    0.18E-06
 Optimization of the real space projectors (new method)

 maximal supplied QI-value         = 24.76
 optimisation between [QCUT,QGAM] = [ 10.15, 20.30] = [ 28.85,115.39] Ry 
 Optimized for a Real-space Cutoff    1.51 Angstroem

   l    n(q)    QCUT    max X(q) W(low)/X(q) W(high)/X(q)  e(spline) 
   0      9    10.150    20.381    0.17E-03    0.18E-03    0.41E-06
   0      9    10.150    15.268    0.18E-03    0.20E-03    0.43E-06
   1      9    10.150     5.964    0.16E-03    0.20E-03    0.36E-06
   1      9    10.150     5.382    0.13E-03    0.16E-03    0.33E-06
 Optimization of the real space projectors (new method)

 maximal supplied QI-value         = 14.36
 optimisation between [QCUT,QGAM] = [ 10.20, 20.39] = [ 29.12,116.47] Ry 
 Optimized for a Real-space Cutoff    1.55 Angstroem

   l    n(q)    QCUT    max X(q) W(low)/X(q) W(high)/X(q)  e(spline) 
   2      9    10.197    66.195    0.14E-03    0.26E-03    0.16E-06
   2      9    10.197    64.643    0.14E-03    0.26E-03    0.16E-06
   0      9    10.197    95.520    0.52E-04    0.23E-04    0.61E-07
   0      9    10.197    63.403    0.50E-04    0.22E-04    0.58E-07
   1      9    10.197    19.961    0.18E-03    0.80E-04    0.90E-07
   1      9    10.197    13.289    0.15E-03    0.68E-04    0.78E-07
 Optimization of the real space projectors (new method)

 maximal supplied QI-value         = 24.76
 optimisation between [QCUT,QGAM] = [ 10.15, 20.30] = [ 28.85,115.39] Ry 
 Optimized for a Real-space Cutoff    1.51 Angstroem

   l    n(q)    QCUT    max X(q) W(low)/X(q) W(high)/X(q)  e(spline) 
   0      9    10.150    20.381    0.17E-03    0.18E-03    0.41E-06
   0      9    10.150    15.268    0.18E-03    0.20E-03    0.43E-06
   1      9    10.150     5.964    0.16E-03    0.20E-03    0.36E-06
   1      9    10.150     5.382    0.13E-03    0.16E-03    0.33E-06
 Optimization of the real space projectors (new method)

 maximal supplied QI-value         = 25.13
 optimisation between [QCUT,QGAM] = [ 10.05, 20.36] = [ 28.30,116.06] Ry 
 Optimized for a Real-space Cutoff    1.51 Angstroem

   l    n(q)    QCUT    max X(q) W(low)/X(q) W(high)/X(q)  e(spline) 
   0      9    10.053   115.676    0.19E-03    0.21E-03    0.38E-06
   0      9    10.053    87.132    0.19E-03    0.21E-03    0.38E-06
   1      9    10.053     4.429    0.87E-04    0.11E-03    0.39E-06
   1      9    10.053     2.733    0.59E-04    0.62E-04    0.43E-06
 Optimization of the real space projectors (new method)

 maximal supplied QI-value         = 24.76
 optimisation between [QCUT,QGAM] = [ 10.15, 20.30] = [ 28.85,115.39] Ry 
 Optimized for a Real-space Cutoff    1.51 Angstroem

   l    n(q)    QCUT    max X(q) W(low)/X(q) W(high)/X(q)  e(spline) 
   0      9    10.150    20.381    0.17E-03    0.18E-03    0.41E-06
   0      9    10.150    15.268    0.18E-03    0.20E-03    0.43E-06
   1      9    10.150     5.964    0.16E-03    0.20E-03    0.36E-06
   1      9    10.150     5.382    0.13E-03    0.16E-03    0.33E-06
  PAW_PBE Ce 23Dec2003                  :
 energy of atom  1       EATOM=-1063.0861
 kinetic energy error for atom=    0.0451 (will be added to EATOM!!)
  PAW_PBE O 08Apr2002                   :
 energy of atom  2       EATOM= -432.3788
 kinetic energy error for atom=    0.1156 (will be added to EATOM!!)
  PAW_PBE Pt 04Feb2005                  :
 energy of atom  3       EATOM= -729.1176
 kinetic energy error for atom=    0.0056 (will be added to EATOM!!)
  PAW_PBE O 08Apr2002                   :
 energy of atom  4       EATOM= -432.3788
 kinetic energy error for atom=    0.1156 (will be added to EATOM!!)
  PAW_PBE C 08Apr2002                   :
 energy of atom  5       EATOM= -147.1560
 kinetic energy error for atom=    0.0288 (will be added to EATOM!!)
  PAW_PBE O 08Apr2002                   :
 energy of atom  6       EATOM= -432.3788
 kinetic energy error for atom=    0.1156 (will be added to EATOM!!)
 
 
 POSCAR: CeO2-110-l3-p23:                        
  positions in direct lattice
  velocities in cartesian coordinates
 exchange correlation table for  LEXCH =        8
   RHO(1)=    0.500       N(1)  =     2000
   RHO(2)=  100.500       N(2)  =     4000

 VTST: version 3.1, (03/28/14)

 CHAIN: initializing optimizer
 
 OPT: Using VASP Conjugate-Gradient optimizer
 CHAIN: Read ICHAIN            0
 
 POSCAR: CeO2-110-l3-p23:                        
  positions in direct lattice
  velocities in cartesian coordinates
 


--------------------------------------------------------------------------------------------------------


 ion  position               nearest neighbor table
   1  0.771  0.167  0.000-  37 2.38  41 2.38  40 2.38  45 2.38  53 2.38  55 2.38
   2  0.771  0.500  0.000-  37 2.38  39 2.38  41 2.38  47 2.38  59 2.38  60 2.38
   3  0.271  0.167  0.000-  42 2.38  46 2.38  44 2.38  38 2.38  51 2.38  52 2.38
   4  0.771  0.833  0.000-  39 2.38  47 2.38  45 2.38  40 2.38  50 2.38  54 2.38
   5  0.271  0.500  0.000-  42 2.38  43 2.38  46 2.38  48 2.38  57 2.38  58 2.38
   6  0.271  0.833  0.000-  43 2.38  48 2.38  44 2.38  38 2.38  49 2.38  56 2.38
   7  0.521  0.000  0.079-  67 2.37  61 2.38  51 2.38  55 2.38  49 2.38  50 2.38  44 2.38  45 2.38

   8  0.521  0.667  0.079-  62 2.37  63 2.38  49 2.38  50 2.38  57 2.38  60 2.38  39 2.38  43 2.38

   9  0.021  0.000  0.079-  65 2.36  66 2.37  54 2.38  56 2.38  52 2.38  53 2.38  38 2.38  40 2.38

  10  0.521  0.333  0.079-  71 2.37  55 2.38  51 2.38  60 2.38  57 2.38  46 2.38  37 2.38  69 2.39

  11  0.021  0.333  0.079-  70 2.37  53 2.38  52 2.38  59 2.38  58 2.38  42 2.38  41 2.38  72 2.39

  12  0.021  0.667  0.079-  68 2.37  64 2.37  54 2.38  56 2.38  58 2.38  59 2.38  47 2.38  48 2.38

  13  0.771  0.168  0.158-  80 2.35  73 2.36  70 2.37  71 2.37  66 2.38  55 2.39  53 2.39  61 2.39

  14  0.771  0.833  0.157-  84 2.35  63 2.37  61 2.37  64 2.37  66 2.38  74 2.38  50 2.38  54 2.38

  15  0.271  0.167  0.158-  83 2.36  65 2.37  79 2.37  72 2.37  69 2.38  67 2.38  52 2.39  51 2.39

  16  0.771  0.499  0.158-  76 2.36  78 2.36  70 2.37  71 2.37  64 2.38  59 2.39  60 2.39  63 2.39

  17  0.271  0.500  0.158-  68 2.37  82 2.37  72 2.37  81 2.37  69 2.38  62 2.38  58 2.39  57 2.40

  18  0.271  0.833  0.156-  77 2.35  56 2.36  49 2.36  75 2.37  62 2.38  67 2.38  68 2.38  65 2.38

  19  0.020  0.666  0.234-  64 2.34  68 2.36  92 2.36  82 2.37  84 2.37  76 2.37  87 2.38  77 2.39

  20  0.522  0.666  0.234-  63 2.34  62 2.35  81 2.36  78 2.36  74 2.38  90 2.38  75 2.39  93 2.43

  21  0.021  0.334  0.235-  72 2.36  80 2.37  76 2.37  70 2.38  95 2.38  83 2.38  82 2.39  94 2.39

  22  0.020  0.001  0.233-  66 2.33  65 2.35  86 2.36  83 2.37  80 2.37  84 2.37  96 2.37  77 2.40

  23  0.522  0.001  0.234-  61 2.33  67 2.35  79 2.36  73 2.36  74 2.38  89 2.38  75 2.39  91 2.43

  24  0.520  0.334  0.234-  69 2.34  71 2.36  78 2.37  73 2.37  85 2.38  88 2.39  79 2.39  81 2.39

  25  0.772  0.500  0.317- 106 2.30  94 2.35 107 2.36  92 2.36  90 2.37  85 2.39  76 2.44  78 2.46

  26  0.772  0.168  0.317- 103 2.30  94 2.35 104 2.36  86 2.37  89 2.37  85 2.39  80 2.44  73 2.45

  27  0.268  0.501  0.317- 108 2.27 105 2.34  95 2.36  88 2.41  82 2.42  87 2.42  93 2.45  81 2.45

  28  0.270  0.834  0.311-  87 2.33  96 2.33  93 2.34  91 2.34  77 2.34  75 2.34  98 2.42
  29  0.268  0.166  0.317- 101 2.28 100 2.34  95 2.35  88 2.40  96 2.42  83 2.42  79 2.44  91 2.44

  30  0.771  0.834  0.316- 102 2.31  97 2.33  92 2.37  86 2.38  90 2.41  89 2.41  74 2.42  84 2.44

  31  0.017  0.005  0.385- 103 2.21 101 2.22  86 2.26  96 2.28 102 2.32  98 2.48
  32  0.523  0.007  0.386-  89 2.24  91 2.24 104 2.27 100 2.28  97 2.35  99 2.48
  33  0.016  0.662  0.387- 106 2.20 108 2.24  92 2.29  87 2.31 102 2.34  98 2.56
  34  0.523  0.661  0.386-  90 2.23  93 2.24 107 2.27 105 2.29  97 2.35  99 2.48
  35  0.020  0.334  0.389-  94 2.33  95 2.35 108 2.45 106 2.47 101 2.47 103 2.47
  36  0.520  0.334  0.385-  85 2.23  88 2.24 107 2.33 105 2.33 104 2.33 100 2.34
  37  0.646  0.333  0.000-   1 2.38   2 2.38  10 2.38
  38  0.146  0.000  0.000-   3 2.38   6 2.38   9 2.38
  39  0.646  0.667  0.000-   4 2.38   2 2.38   8 2.38
  40  0.896  0.000  0.000-   1 2.38   4 2.38   9 2.38
  41  0.896  0.333  0.000-   1 2.38   2 2.38  11 2.38
  42  0.146  0.333  0.000-   3 2.38   5 2.38  11 2.38
  43  0.396  0.667  0.000-   6 2.38   5 2.38   8 2.38
  44  0.396  0.000  0.000-   3 2.38   6 2.38   7 2.38
  45  0.646  0.000  0.000-   1 2.38   4 2.38   7 2.38
  46  0.396  0.333  0.000-   3 2.38   5 2.38  10 2.38
  47  0.896  0.667  0.000-   4 2.38   2 2.38  12 2.38
  48  0.146  0.667  0.000-   6 2.38   5 2.38  12 2.38
  49  0.396  0.833  0.079-  18 2.36   8 2.38   7 2.38   6 2.38
  50  0.646  0.833  0.079-   8 2.38   7 2.38   4 2.38  14 2.38
  51  0.396  0.167  0.079-  10 2.38   7 2.38   3 2.38  15 2.39
  52  0.146  0.167  0.079-  11 2.38   9 2.38   3 2.38  15 2.39
  53  0.896  0.167  0.079-  11 2.38   9 2.38   1 2.38  13 2.39
  54  0.896  0.833  0.079-  12 2.38   9 2.38   4 2.38  14 2.38
  55  0.646  0.167  0.079-  10 2.38   7 2.38   1 2.38  13 2.39
  56  0.146  0.833  0.079-  18 2.36  12 2.38   9 2.38   6 2.38
  57  0.396  0.500  0.079-   8 2.38  10 2.38   5 2.38  17 2.40
  58  0.146  0.500  0.079-  11 2.38  12 2.38   5 2.38  17 2.39
  59  0.896  0.500  0.079-  11 2.38  12 2.38   2 2.38  16 2.39
  60  0.646  0.500  0.079-   8 2.38  10 2.38   2 2.38  16 2.39
  61  0.646  1.000  0.157-  23 2.33  14 2.37   7 2.38  13 2.39
  62  0.396  0.667  0.157-  20 2.35   8 2.37  18 2.38  17 2.38
  63  0.646  0.667  0.157-  20 2.34  14 2.37   8 2.38  16 2.39
  64  0.895  0.666  0.157-  19 2.34  12 2.37  14 2.37  16 2.38
  65  0.146  0.000  0.156-  22 2.35   9 2.36  15 2.37  18 2.38
  66  0.895  0.000  0.157-  22 2.33   9 2.37  14 2.38  13 2.38
  67  0.396  0.000  0.157-  23 2.35   7 2.37  15 2.38  18 2.38
  68  0.146  0.666  0.157-  19 2.36  12 2.37  17 2.37  18 2.38
  69  0.396  0.334  0.157-  24 2.34  15 2.38  17 2.38  10 2.39
  70  0.896  0.333  0.157-  13 2.37  16 2.37  11 2.37  21 2.38
  71  0.646  0.333  0.157-  24 2.36  10 2.37  13 2.37  16 2.37
  72  0.146  0.334  0.158-  21 2.36  17 2.37  15 2.37  11 2.39
  73  0.645  0.167  0.235-  13 2.36  23 2.36  24 2.37  26 2.45
  74  0.645  0.834  0.236-  23 2.38  20 2.38  14 2.38  30 2.42
  75  0.396  0.834  0.235-  28 2.34  18 2.37  20 2.39  23 2.39
  76  0.896  0.499  0.235-  16 2.36  21 2.37  19 2.37  25 2.44
  77  0.147  0.833  0.234-  28 2.34  18 2.35  19 2.39  22 2.40
  78  0.645  0.500  0.235-  16 2.36  20 2.36  24 2.37  25 2.46
  79  0.396  0.165  0.236-  23 2.36  15 2.37  24 2.39  29 2.44
  80  0.896  0.168  0.235-  13 2.35  21 2.37  22 2.37  26 2.44
  81  0.396  0.502  0.236-  20 2.36  17 2.37  24 2.39  27 2.45
  82  0.145  0.502  0.236-  19 2.37  17 2.37  21 2.39  27 2.42
  83  0.146  0.166  0.236-  15 2.36  22 2.37  21 2.38  29 2.42
  84  0.896  0.833  0.235-  14 2.35  19 2.37  22 2.37  30 2.44
  85  0.644  0.334  0.313-  36 2.23  24 2.38  26 2.39  25 2.39
  86  0.894  0.001  0.311-  31 2.26  22 2.36  26 2.37  30 2.38
  87  0.144  0.673  0.313-  33 2.31  28 2.33  19 2.38  27 2.42
  88  0.396  0.334  0.313-  36 2.24  24 2.39  29 2.40  27 2.41
  89  0.645  0.003  0.313-  32 2.24  26 2.37  23 2.38  30 2.41
  90  0.645  0.664  0.313-  34 2.23  25 2.37  20 2.38  30 2.41
  91  0.397  0.995  0.315-  32 2.24  28 2.34  23 2.43  29 2.44
  92  0.894  0.666  0.311-  33 2.29  25 2.36  19 2.36  30 2.37
  93  0.397  0.673  0.315-  34 2.24  28 2.34  20 2.43  27 2.45
  94  0.894  0.334  0.314-  35 2.33  26 2.35  25 2.35  21 2.39
  95  0.148  0.333  0.314-  35 2.35  29 2.35  27 2.36  21 2.38
  96  0.144  0.995  0.312-  31 2.28  28 2.33  22 2.37  29 2.42
  97  0.633  0.834  0.388-  30 2.33  34 2.35  32 2.35
  98  0.154  0.837  0.395- 109 1.97  28 2.42  31 2.48  33 2.56
  99  0.396  0.834  0.402- 109 2.02  32 2.48  34 2.48
 100  0.403  0.166  0.391-  32 2.28  29 2.34  36 2.34
 101  0.142  0.155  0.390-  31 2.22  29 2.28  35 2.47
 102  0.907  0.835  0.388-  30 2.31  31 2.32  33 2.34
 103  0.896  0.156  0.391-  31 2.21  26 2.30  35 2.47
 104  0.638  0.168  0.392-  32 2.27  36 2.33  26 2.36
 105  0.403  0.500  0.391-  34 2.29  36 2.33  27 2.34
 106  0.896  0.510  0.392-  33 2.20  25 2.30  35 2.47
 107  0.638  0.499  0.392-  34 2.27  36 2.33  25 2.36
 108  0.141  0.510  0.390-  33 2.24  27 2.27  35 2.45
 109  0.263  0.786  0.453- 111 1.84  98 1.97  99 2.02 112 2.04
 110  0.420  0.708  0.546- 111 1.16
 111  0.359  0.739  0.510- 110 1.16 109 1.84
 112  0.099  0.736  0.485- 113 1.32 109 2.04
 113  0.087  0.692  0.534- 112 1.32
 

IMPORTANT INFORMATION: All symmetrisations will be switched off!
NOSYMM: (Re-)initialisation of all symmetry stuff for point group C_1.

 
 
 KPOINTS: CeO2-111-3x3-9layers         ! Comment  

Automatic generation of k-mesh.
Space group operators:
 irot       det(A)        alpha          n_x          n_y          n_z        tau_x        tau_y        tau_z
    1     1.000000     0.000000     1.000000     0.000000     0.000000     0.000000     0.000000     0.000000
 
 Subroutine IBZKPT returns following result:
 ===========================================
 
 Found      1 irreducible k-points:
 
 Following reciprocal coordinates:
            Coordinates               Weight
  0.000000  0.000000  0.000000      1.000000
 
 Following cartesian coordinates:
            Coordinates               Weight
  0.000000  0.000000  0.000000      1.000000
 


--------------------------------------------------------------------------------------------------------




 Dimension of arrays:
   k-points           NKPTS =      1   k-points in BZ     NKDIM =      1   number of bands    NBANDS=    608
   number of dos      NEDOS =    301   number of ions     NIONS =    113
   non local maximal  LDIM  =      8   non local SUM 2l+1 LMDIM =     32
   total plane-waves  NPLWV = 933120
   max r-space proj   IRMAX =   5592   max aug-charges    IRDMAX= 143303
   dimension x,y,z NGX =    72 NGY =   80 NGZ =  162
   dimension x,y,z NGXF=   144 NGYF=  160 NGZF=  324
   support grid    NGXF=   288 NGYF=  320 NGZF=  648
   ions per type =              36  72   1   1   1   2
 NGX,Y,Z   is equivalent  to a cutoff of  10.90, 11.42, 10.90 a.u.
 NGXF,Y,Z  is equivalent  to a cutoff of  21.80, 22.84, 21.80 a.u.


 I would recommend the setting:
   dimension x,y,z NGX =    72 NGY =   76 NGZ =  161
 SYSTEM =  unknown system                          
 POSCAR =  CeO2-110-l3-p23:                        

 Startparameter for this run:
   NWRITE =      2    write-flag & timer
   PREC   = accura    normal or accurate (medium, high low for compatibility)
   ISTART =      1    job   : 0-new  1-cont  2-samecut
   ICHARG =      0    charge: 1-file 2-atom 10-const
   ISPIN  =      2    spin polarized calculation?
   LNONCOLLINEAR =      F non collinear calculations
   LSORBIT =      F    spin-orbit coupling
   INIWAV =      1    electr: 0-lowe 1-rand  2-diag
   LASPH  =      T    aspherical Exc in radial PAW
   METAGGA=      F    non-selfconsistent MetaGGA calc.

 Electronic Relaxation 1
   ENCUT  =  400.0 eV  29.40 Ry    5.42 a.u.  17.91 18.99 40.29*2*pi/ulx,y,z
   ENINI  =  400.0     initial cutoff
   ENAUG  =  644.9 eV  augmentation charge cutoff
   NELM   =    100;   NELMIN=  2; NELMDL=  0     # of ELM steps 
   EDIFF  = 0.1E-03   stopping-criterion for ELM
   LREAL  =      T    real-space projection
   NLSPLINE    = F    spline interpolate recip. space projectors
   LCOMPAT=      F    compatible to vasp.4.4
   GGA_COMPAT  = T    GGA compatible to vasp.4.4-vasp.4.6
   LMAXPAW     = -100 max onsite density
   LMAXMIX     =    6 max onsite mixed and CHGCAR
   VOSKOWN=      0    Vosko Wilk Nusair interpolation
   ROPT   =   -0.00025  -0.00025  -0.00025  -0.00025
   ROPT   =   -0.00025  -0.00025
 Ionic relaxation
   EDIFFG = -.5E-01   stopping-criterion for IOM
   NSW    =    100    number of steps for IOM
   NBLOCK =      1;   KBLOCK =    100    inner block; outer block 
   IBRION =      2    ionic relax: 0-MD 1-quasi-New 2-CG
   NFREE  =      1    steps in history (QN), initial steepest desc. (CG)
   ISIF   =      2    stress and relaxation
   IWAVPR =     11    prediction:  0-non 1-charg 2-wave 3-comb
   ISYM   =      0    0-nonsym 1-usesym 2-fastsym
   LCORR  =      T    Harris-Foulkes like correction to forces

   POTIM  = 0.1000    time-step for ionic-motion
   TEIN   =    0.0    initial temperature
   TEBEG  =    0.0;   TEEND  =   0.0 temperature during run
   SMASS  =  -3.00    Nose mass-parameter (am)
   estimated Nose-frequenzy (Omega)   =  0.10E-29 period in steps =****** mass=  -0.276E-26a.u.
   SCALEE = 1.0000    scale energy and forces
   NPACO  =    256;   APACO  = 16.0  distance and # of slots for P.C.
   PSTRESS=    0.0 pullay stress

  Mass of Ions in am
   POMASS = 140.12 16.00195.08 16.00 12.01 16.00
  Ionic Valenz
   ZVAL   =  12.00  6.00 10.00  6.00  4.00  6.00
  Atomic Wigner-Seitz radii
   RWIGS  =  -1.00 -1.00 -1.00 -1.00 -1.00 -1.00
  virtual crystal weights 
   VCA    =   1.00  1.00  1.00  1.00  1.00  1.00
   NELECT =     896.0000    total number of electrons
   NUPDOWN=      -1.0000    fix difference up-down

 DOS related values:
   EMIN   =  10.00;   EMAX   =-10.00  energy-range for DOS
   EFERMI =   0.00
   ISMEAR =     0;   SIGMA  =   0.05  broadening in eV -4-tet -1-fermi 0-gaus

 Electronic relaxation 2 (details)
   IALGO  =     68    algorithm
   LDIAG  =      T    sub-space diagonalisation (order eigenvalues)
   LSUBROT=      F    optimize rotation matrix (better conditioning)
   TURBO    =      0    0=normal 1=particle mesh
   IRESTART =      0    0=no restart 2=restart with 2 vectors
   NREBOOT  =      0    no. of reboots
   NMIN     =      0    reboot dimension
   EREF     =   0.00    reference energy to select bands
   IMIX   =      4    mixing-type and parameters
     AMIX     =   0.20;   BMIX     =  0.00
     AMIX_MAG =   0.80;   BMIX_MAG =  0.00
     AMIN     =   0.10
     WC   =   100.;   INIMIX=   1;  MIXPRE=   1;  MAXMIX= -45

 Intra band minimization:
   WEIMIN = 0.0010     energy-eigenvalue tresh-hold
   EBREAK =  0.41E-07  absolut break condition
   DEPER  =   0.30     relativ break condition  

   TIME   =   0.40     timestep for ELM

  volume/ion in A,a.u.               =      27.96       188.66
  Fermi-wavevector in a.u.,A,eV,Ry     =   1.075611  2.032611 15.741118  1.156940
  Thomas-Fermi vector in A             =   2.211473
 
 Write flags
   LWAVE  =      T    write WAVECAR
   LCHARG =      T    write CHGCAR
   LVTOT  =      F    write LOCPOT, total local potential
   LVHAR  =      F    write LOCPOT, Hartree potential only
   LELF   =      F    write electronic localiz. function (ELF)
   LORBIT =     11    0 simple, 1 ext, 2 COOP (PROOUT)


 Dipole corrections
   LMONO  =      F    monopole corrections only (constant potential shift)
   LDIPOL =      T    correct potential (dipole corrections)
   IDIPOL =      3    1-x, 2-y, 3-z, 4-all directions 
   EPSILON=  1.0000000 bulk dielectric constant

 LDA+U is selected, type is set to LDAUTYPE =  2
   angular momentum for each species LDAUL =     3   -1   -1   -1   -1   -1
   U (eV)           for each species LDAUU =   4.5  0.0  0.0  0.0  0.0  0.0
   J (eV)           for each species LDAUJ =   0.0  0.0  0.0  0.0  0.0  0.0
 Exchange correlation treatment:
   GGA     =    --    GGA type
   LEXCH   =     8    internal setting for exchange type
   VOSKOWN=      0    Vosko Wilk Nusair interpolation
   LHFCALC =     F    Hartree Fock is set to
   LHFONE  =     F    Hartree Fock one center treatment
   AEXX    =    0.0000 exact exchange contribution

 Linear response parameters
   LEPSILON=     F    determine dielectric tensor
   LRPA    =     F    only Hartree local field effects (RPA)
   LNABLA  =     F    use nabla operator in PAW spheres
   LVEL    =     F    velocity operator in full k-point grid
   LINTERFAST=   F  fast interpolation
   KINTER  =     0    interpolate to denser k-point grid
   CSHIFT  =0.1000    complex shift for real part using Kramers Kronig
   OMEGAMAX=  -1.0    maximum frequency
   DEG_THRESHOLD= 0.2000000E-02 threshold for treating states as degnerate
   RTIME   =    0.100 relaxation time in fs

 Orbital magnetization related:
   ORBITALMAG=     F  switch on orbital magnetization
   LCHIMAG   =     F  perturbation theory with respect to B field
   DQ        =  0.001000  dq finite difference perturbation B field



--------------------------------------------------------------------------------------------------------


 conjugate gradient relaxation of ions
   using selective dynamics as specified on POSCAR
 charge density and potential will be updated during run
 spin polarized calculation
 RMM-DIIS sequential band-by-band and
  variant of blocked Davidson during initial phase
 perform sub-space diagonalisation
    before iterative eigenvector-optimisation
 modified Broyden-mixing scheme, WC =      100.0
 initial mixing is a Kerker type mixing with AMIX =  0.2000 and BMIX =      0.0010
 Hartree-type preconditioning will be used
 using additional bands          160
 real space projection scheme for non local part
 use partial core corrections
 calculate Harris-corrections to forces 
   (improved forces if not selfconsistent)
 use gradient corrections 
 use of overlap-Matrix (Vanderbilt PP)
 Gauss-broadening in eV      SIGMA  =   0.05


--------------------------------------------------------------------------------------------------------


  energy-cutoff  :      400.00
  volume of cell :     3159.12
      direct lattice vectors                 reciprocal lattice vectors
    10.980000000  0.000000000  0.000000000     0.091074681  0.000000000  0.000000000
     0.000000000 11.646048686  0.000000000     0.000000000  0.085866033  0.000000000
     0.000000000  0.000000000 24.705040572     0.000000000  0.000000000  0.040477570

  length of vectors
    10.980000000 11.646048686 24.705040572     0.091074681  0.085866033  0.040477570


 
 old parameters found on file WAVECAR:
  energy-cutoff  :      400.00
  volume of cell :     3159.12
      direct lattice vectors                 reciprocal lattice vectors
    10.980000000  0.000000000  0.000000000     0.091074681  0.000000000  0.000000000
     0.000000000 11.646048686  0.000000000     0.000000000  0.085866033  0.000000000
     0.000000000  0.000000000 24.705040572     0.000000000  0.000000000  0.040477570

  length of vectors

 
 k-points in units of 2pi/SCALE and weight: CeO2-111-3x3-9layers         ! Comment  
   0.00000000  0.00000000  0.00000000       1.000
 
 k-points in reciprocal lattice and weights: CeO2-111-3x3-9layers         ! Comment  
   0.00000000  0.00000000  0.00000000       1.000
 
 position of ions in fractional coordinates (direct lattice) 
   0.77120274  0.16666677  0.00000000
   0.77120274  0.50000010  0.00000000
   0.27120274  0.16666677  0.00000000
   0.77120274  0.83333343  0.00000000
   0.27120274  0.50000010  0.00000000
   0.27120274  0.83333343  0.00000000
   0.52120274  0.00000010  0.07856729
   0.52120274  0.66666677  0.07856729
   0.02120274  0.00000010  0.07856729
   0.52120274  0.33333343  0.07856729
   0.02120274  0.33333343  0.07856729
   0.02120274  0.66666677  0.07856729
   0.77115414  0.16765555  0.15754990
   0.77095744  0.83329606  0.15743244
   0.27069706  0.16688947  0.15782625
   0.77125876  0.49938971  0.15756379
   0.27054935  0.50018689  0.15791783
   0.27108822  0.83330668  0.15648322
   0.01959920  0.66647654  0.23377666
   0.52159862  0.66589377  0.23380223
   0.02102451  0.33355410  0.23528777
   0.01969711  0.00067673  0.23310918
   0.52177733  0.00106871  0.23374277
   0.52024131  0.33364517  0.23412271
   0.77205665  0.49965274  0.31676194
   0.77196258  0.16781080  0.31673236
   0.26775583  0.50129843  0.31749406
   0.26981742  0.83355405  0.31134060
   0.26845931  0.16624623  0.31718741
   0.77067795  0.83353076  0.31621787
   0.01698223  0.00519638  0.38450974
   0.52333786  0.00702384  0.38566979
   0.01556136  0.66166153  0.38659806
   0.52347016  0.66087368  0.38566183
   0.01981734  0.33375366  0.38949445
   0.52010709  0.33404646  0.38483244
   0.64620274  0.33333343  0.00000000
   0.14620274  0.00000010  0.00000000
   0.64620274  0.66666677  0.00000000
   0.89620274  0.00000010  0.00000000
   0.89620274  0.33333343  0.00000000
   0.14620274  0.33333343  0.00000000
   0.39620274  0.66666677  0.00000000
   0.39620274  0.00000010  0.00000000
   0.64620274  0.00000010  0.00000000
   0.39620274  0.33333343  0.00000000
   0.89620274  0.66666677  0.00000000
   0.14620274  0.66666677  0.00000000
   0.39620274  0.83333343  0.07856729
   0.64620274  0.83333343  0.07856729
   0.39620274  0.16666677  0.07856729
   0.14620274  0.16666677  0.07856729
   0.89620274  0.16666677  0.07856729
   0.89620274  0.83333343  0.07856729
   0.64620274  0.16666677  0.07856729
   0.14620274  0.83333343  0.07856729
   0.39620274  0.50000010  0.07856729
   0.14620274  0.50000010  0.07856729
   0.89620274  0.50000010  0.07856729
   0.64620274  0.50000010  0.07856729
   0.64614991  0.99980807  0.15710578
   0.39596004  0.66656664  0.15686453
   0.64604351  0.66705611  0.15711641
   0.89537112  0.66649807  0.15670270
   0.14635062  0.00048200  0.15644319
   0.89534665  0.00039528  0.15657957
   0.39605278  0.00028105  0.15687298
   0.14622075  0.66626575  0.15662284
   0.39550261  0.33353287  0.15748430
   0.89589168  0.33348126  0.15683468
   0.64574771  0.33343776  0.15679930
   0.14638090  0.33358486  0.15753949
   0.64522036  0.16745014  0.23494839
   0.64522360  0.83353916  0.23591128
   0.39556156  0.83351067  0.23468736
   0.89614649  0.49932940  0.23507184
   0.14696166  0.83340656  0.23381272
   0.64518604  0.49960864  0.23492541
   0.39571999  0.16499473  0.23617679
   0.89615855  0.16792230  0.23497573
   0.39562194  0.50222847  0.23624585
   0.14533958  0.50150016  0.23608188
   0.14550288  0.16573234  0.23570364
   0.89599561  0.83346100  0.23457280
   0.64413552  0.33354888  0.31314370
   0.89439203  0.00091070  0.31082814
   0.14365919  0.67320034  0.31273144
   0.39553159  0.33351338  0.31325495
   0.64513868  0.00346589  0.31319256
   0.64491774  0.66395926  0.31314802
   0.39676102  0.99474099  0.31487681
   0.89365526  0.66647886  0.31143436
   0.39652020  0.67255804  0.31491089
   0.89372509  0.33355842  0.31355015
   0.14810507  0.33298358  0.31351044
   0.14415273  0.99489256  0.31168415
   0.63290019  0.83392310  0.38771013
   0.15430015  0.83739392  0.39464512
   0.39637537  0.83395259  0.40191923
   0.40279597  0.16635705  0.39066126
   0.14168916  0.15513667  0.39019900
   0.90726995  0.83472794  0.38758203
   0.89630527  0.15613460  0.39134176
   0.63847484  0.16819505  0.39175282
   0.40287046  0.50042346  0.39052733
   0.89579972  0.51039435  0.39158637
   0.63840108  0.49905477  0.39154763
   0.14085499  0.51040582  0.38967175
   0.26250811  0.78593317  0.45321987
   0.41962291  0.70848373  0.54588913
   0.35864037  0.73863212  0.51010089
   0.09920634  0.73605229  0.48527463
   0.08666414  0.69186389  0.53426409
 
 position of ions in cartesian coordinates  (Angst):
   8.46780604  1.94100927  0.00000000
   8.46780604  5.82302550  0.00000000
   2.97780604  1.94100927  0.00000000
   8.46780604  9.70504173  0.00000000
   2.97780604  5.82302550  0.00000000
   2.97780604  9.70504173  0.00000000
   5.72280604  0.00000116  1.94100811
   5.72280604  7.76403361  1.94100811
   0.23280604  0.00000116  1.94100811
   5.72280604  3.88201739  1.94100811
   0.23280604  3.88201739  1.94100811
   0.23280604  7.76403361  1.94100811
   8.46727249  1.95252472  3.89227667
   8.46511272  9.70460644  3.88937470
   2.97225376  1.94360287  3.89910400
   8.46842118  5.81591683  3.89261972
   2.97063191  5.82520087  3.90136646
   2.97654871  9.70473012  3.86592433
   0.21519923  7.76181821  5.77546177
   5.72715282  7.75503124  5.77609354
   0.23084914  3.88458728  5.81279390
   0.21627431  0.00788126  5.75897180
   5.72911510  0.01244624  5.77462456
   5.71224960  3.88564794  5.78401103
   8.47718202  5.81898019  7.82561668
   8.47614914  1.95433280  7.82488571
   2.93995902  5.83814597  7.84370367
   2.96259524  9.70761100  7.69168207
   2.94768326  1.93611167  7.83612788
   8.46204384  9.70733978  7.81217537
   0.18646485  0.06051730  9.49932879
   5.74624966  0.08180003  9.52798789
   0.17086375  7.70574244  9.55092071
   5.74770231  7.69656710  9.52779117
   0.21759442  3.88691141  9.62247608
   5.71077583  3.89032130  9.50730109
   7.09530604  3.88201739  0.00000000
   1.60530604  0.00000116  0.00000000
   7.09530604  7.76403361  0.00000000
   9.84030604  0.00000116  0.00000000
   9.84030604  3.88201739  0.00000000
   1.60530604  3.88201739  0.00000000
   4.35030604  7.76403361  0.00000000
   4.35030604  0.00000116  0.00000000
   7.09530604  0.00000116  0.00000000
   4.35030604  3.88201739  0.00000000
   9.84030604  7.76403361  0.00000000
   1.60530604  7.76403361  0.00000000
   4.35030604  9.70504173  1.94100811
   7.09530604  9.70504173  1.94100811
   4.35030604  1.94100927  1.94100811
   1.60530604  1.94100927  1.94100811
   9.84030604  1.94100927  1.94100811
   9.84030604  9.70504173  1.94100811
   7.09530604  1.94100927  1.94100811
   1.60530604  9.70504173  1.94100811
   4.35030604  5.82302550  1.94100811
   1.60530604  5.82302550  1.94100811
   9.84030604  5.82302550  1.94100811
   7.09530604  5.82302550  1.94100811
   7.09472605 11.64381346  3.88130455
   4.34764121  7.76286754  3.87534462
   7.09355774  7.76856790  3.88156722
   9.83117485  7.76206901  3.87134649
   1.60692977  0.00561343  3.86493541
   9.83090625  0.00460348  3.86830463
   4.34865953  0.00327315  3.87555325
   1.60550385  7.75936341  3.86937362
   4.34261864  3.88434007  3.89065592
   9.83689064  3.88373898  3.87460701
   7.09030980  3.88323243  3.87373305
   1.60726225  3.88494549  3.89201942
   7.08451959  1.95013246  5.80440947
   7.08455512  9.70743766  5.82819766
   4.34326589  9.70710582  5.79796068
   9.83968851  5.81521453  5.80745928
   1.61363900  9.70589337  5.77635264
   7.08414269  5.81846653  5.80384167
   4.34500548  1.92153667  5.83475729
   9.83982092  1.95563127  5.80508503
   4.34392891  5.84897716  5.83646319
   1.59582861  5.84049530  5.83241242
   1.59762165  1.93012691  5.82306796
   9.83803176  9.70652736  5.79513063
   7.07260802  3.88452652  7.73622791
   9.82042449  0.01060606  7.67902187
   1.57737794  7.84012390  7.72604281
   4.34293686  3.88411300  7.73897637
   7.08362271  0.04036392  7.73743501
   7.08119674  7.73250189  7.73633459
   4.35643595 11.58480194  7.77904442
   9.81233474  7.76184525  7.69399843
   4.35379184  7.83264365  7.77988642
   9.81310148  3.88463763  7.74626909
   1.62619371  3.87794298  7.74528812
   1.58279702 11.58656724  7.70016957
   6.94924405  9.71190902  9.57839460
   1.69421561  9.75233036  9.74972382
   4.35220158  9.71225245  9.92943094
   4.42269978  1.93740227  9.65130235
   1.55574693  1.80672918  9.63988212
   9.96182400  9.72128227  9.57522978
   9.84143189  1.81835113  9.66811395
   7.01045370  1.95880776  9.67826934
   4.42351768  5.82795602  9.64799358
   9.83588088  5.94407750  9.67415719
   7.00964384  5.81201616  9.67320014
   1.54658775  5.94421099  9.62685644
   2.88233906  9.15301596 11.19681527
   4.60745957  8.25103602 13.48621299
   3.93787123  8.60214564 12.60206323
   1.08928558  8.57210076 11.98872946
   0.95157228  8.05748054 13.19901608
 


--------------------------------------------------------------------------------------------------------


 use parallel FFT for wavefunctions z direction half grid
 k-point  1 :   0.0000 0.0000 0.0000  plane waves:   28608

 maximum and minimum number of plane-waves per node :      4774     4761

 maximum number of plane-waves:     28608
 maximum index in each direction: 
   IXMAX=   17   IYMAX=   18   IZMAX=   40
   IXMIN=  -17   IYMIN=  -18   IZMIN=    0

 NGX is ok and might be reduce to  70
 NGY is ok and might be reduce to  74
 NGZ is ok and might be reduce to 162

 real space projection operators:
  total allocation   :      68611.48 KBytes
  max/ min on nodes  :      11661.19      11308.14


 parallel 3D FFT for wavefunctions:
    minimum data exchange during FFTs selected (reduces bandwidth)
 parallel 3D FFT for charge:
    minimum data exchange during FFTs selected (reduces bandwidth)


 total amount of memory used by VASP on root node    89983. kBytes
========================================================================

   base      :      30000. kBytes
   nonlr-proj:      13942. kBytes
   fftplans  :      14971. kBytes
   grid      :      24145. kBytes
   one-center:        933. kBytes
   wavefun   :       5992. kBytes
 
     INWAV:  cpu time    2.50: real time    2.52
 Broyden mixing: mesh for mixing (old mesh)
   NGX = 35   NGY = 37   NGZ = 81
  (NGX  =144   NGY  =160   NGZ  =324)
  gives a total of 104895 points

 charge density for first step will be calculated from the start-wavefunctions


--------------------------------------------------------------------------------------------------------


 Maximum index for non-local projection operator          898
 Maximum index for augmentation-charges         2942 (set IRDMAX)


--------------------------------------------------------------------------------------------------------


 initial charge from wavefunction
 First call to EWALD:  gamma=   0.121
 Maximum number of real-space cells 4x 3x 2
 Maximum number of reciprocal cells 2x 2x 4

 FEWALD executed in parallel
    FEWALD:  cpu time    0.01: real time    0.01


----------------------------------------- Iteration    1(   1)  ---------------------------------------


    POTLOK:  cpu time    0.34: real time    0.35
    SETDIJ:  cpu time    2.86: real time    2.87
     EDDAV:  cpu time    7.60: real time   10.98
       DOS:  cpu time    0.01: real time    0.01
    CHARGE:  cpu time    1.28: real time    1.53
    MIXING:  cpu time    0.01: real time    0.01
    --------------------------------------------
      LOOP:  cpu time   12.12: real time   15.77

 eigenvalue-minimisations  :  1968
 total energy-change (2. order) :-0.8968510E+03  (-0.2580948E-04)
 number of electron     895.9999991 magnetization       0.0000000
 augmentation part      -12.7626062 magnetization      -0.5609085

 DIPCOR: dipole corrections for dipol
 direction  3 min pos   233,
 dipolmoment           0.000000      0.000000      1.081907 electrons x Angstroem
 Tr[quadrupol]    -19608.181407

 energy correction for charged system         0.000000 eV
 dipol+quadrupol energy correction           -0.033531 eV
 added-field ion interaction         13.166855 eV  (added to PSCEN)


 Broyden mixing:
  rms(total) = 0.29388E-02    rms(broyden)= 0.29343E-02
  rms(prec ) = 0.30028E-02
  weight for this iteration     100.00

 Free energy of the ion-electron system (eV)
  ---------------------------------------------------
  alpha Z        PSCENC =      2329.36617970
  Ewald energy   TEWEN  =    243430.99097646
  -Hartree energ DENC   =   -312260.80022034
  -exchange      EXHF   =         0.00000000
  -V(xc)+E(xc)   XCENC  =      2365.89201178
  PAW double counting   =     68292.53696986   -67437.13960369
  entropy T*S    EENTRO =        -0.00000000
  eigenvalues    EBANDS =     -9183.15268318
  atomic energy  EATOM  =     71565.45537739
  ---------------------------------------------------
  free energy    TOTEN  =      -896.85099203 eV

  energy without entropy =     -896.85099203  energy(sigma->0) =     -896.85099203


--------------------------------------------------------------------------------------------------------




----------------------------------------- Iteration    1(   2)  ---------------------------------------


    POTLOK:  cpu time    0.33: real time    0.33
    SETDIJ:  cpu time    2.84: real time    2.84
    EDDIAG:  cpu time    2.45: real time    6.28
  RMM-DIIS:  cpu time    2.25: real time    2.25
    ORTHCH:  cpu time    0.75: real time    3.02
       DOS:  cpu time    0.00: real time    0.00
    --------------------------------------------
      LOOP:  cpu time    8.64: real time   14.75

 eigenvalue-minimisations  :  1455
 total energy-change (2. order) :-0.7856841E-05  (-0.9788294E-05)
 number of electron     895.9999991 magnetization       0.0000000
 augmentation part      -12.7626062 magnetization      -0.5609085

 DIPCOR: dipole corrections for dipol
 direction  3 min pos   233,
 dipolmoment           0.000000      0.000000      1.080994 electrons x Angstroem
 Tr[quadrupol]    -19608.184564

 energy correction for charged system         0.000000 eV
 dipol+quadrupol energy correction           -0.033474 eV
 added-field ion interaction         13.155743 eV  (added to PSCEN)


 Free energy of the ion-electron system (eV)
  ---------------------------------------------------
  alpha Z        PSCENC =      2329.35512410
  Ewald energy   TEWEN  =    243430.99097646
  -Hartree energ DENC   =   -312260.93065505
  -exchange      EXHF   =         0.00000000
  -V(xc)+E(xc)   XCENC  =      2365.89293405
  PAW double counting   =     68292.53936267   -67437.14103696
  entropy T*S    EENTRO =        -0.00000000
  eigenvalues    EBANDS =     -9183.01308255
  atomic energy  EATOM  =     71565.45537739
  ---------------------------------------------------
  free energy    TOTEN  =      -896.85099988 eV

  energy without entropy =     -896.85099988  energy(sigma->0) =     -896.85099988


--------------------------------------------------------------------------------------------------------




 average (electrostatic) potential at core
  the test charge radii are     1.1513  0.7215  1.2059  0.7215  0.6991  0.7215
  (the norm of the test charge is              1.0000)
       1 -84.7119       2 -84.7126       3 -84.7158       4 -84.7156       5 -84.7133
       6 -84.7273       7 -84.3571       8 -84.3561       9 -84.3411      10 -84.3502
      11 -84.3395      12 -84.3409      13 -84.4121      14 -84.4399      15 -84.4515
      16 -84.4115      17 -84.4511      18 -84.4363      19 -84.3945      20 -84.4667
      21 -84.3939      22 -84.3916      23 -84.4695      24 -84.4335      25 -84.3387
      26 -84.3474      27 -84.3796      28 -84.5813      29 -84.4013      30 -84.4121
      31 -84.2924      32 -84.5449      33 -84.2978      34 -84.5128      35 -81.0842
      36 -84.4034      37 -73.2267      38 -73.2344      39 -73.2313      40 -73.2285
      41 -73.2244      42 -73.2276      43 -73.2365      44 -73.2377      45 -73.2323
      46 -73.2297      47 -73.2278      48 -73.2335      49 -73.6256      50 -73.5922
      51 -73.5688      52 -73.5698      53 -73.5623      54 -73.5759      55 -73.5742
      56 -73.6178      57 -73.5619      58 -73.5664      59 -73.5619      60 -73.5716
      61 -73.5983      62 -73.5995      63 -73.5991      64 -73.5869      65 -73.5997
      66 -73.6034      67 -73.5955      68 -73.5837      69 -73.6064      70 -73.5389
      71 -73.5810      72 -73.5569      73 -73.4731      74 -73.5208      75 -73.6170
      76 -73.4605      77 -73.5823      78 -73.4727      79 -73.4954      80 -73.4595
      81 -73.4856      82 -73.4795      83 -73.4784      84 -73.4891      85 -73.7629
      86 -73.7153      87 -73.7070      88 -73.7056      89 -73.7910      90 -73.7890
      91 -73.8596      92 -73.6650      93 -73.8526      94 -73.5473      95 -73.5037
      96 -73.7711      97 -73.2307      98 -74.1017      99 -74.0246     100 -73.2983
     101 -73.0952     102 -73.1988     103 -73.0345     104 -73.2498     105 -73.2839
     106 -73.0280     107 -73.2462     108 -73.0737     109 -73.9234     110 -77.3187
     111 -56.5462     112 -77.0344     113 -75.4897
 
 
 
 E-fermi :   1.1327     XC(G=0):  -6.0733     alpha+bet : -7.6134


 spin component 1

 k-point     1 :       0.0000    0.0000    0.0000
  band No.  band energies     occupation 
      1     -34.0560      1.00000
      2     -34.0473      1.00000
      3     -34.0198      1.00000
      4     -34.0114      1.00000
      5     -34.0108      1.00000
      6     -34.0085      1.00000
      7     -33.8483      1.00000
      8     -33.8100      1.00000
      9     -33.7484      1.00000
     10     -33.7098      1.00000
     11     -33.6725      1.00000
     12     -33.6287      1.00000
     13     -33.6173      1.00000
     14     -33.6130      1.00000
     15     -33.5987      1.00000
     16     -33.5927      1.00000
     17     -33.5913      1.00000
     18     -33.5724      1.00000
     19     -33.5660      1.00000
     20     -33.5555      1.00000
     21     -33.5483      1.00000
     22     -33.5448      1.00000
     23     -33.5428      1.00000
     24     -33.5219      1.00000
     25     -33.5162      1.00000
     26     -33.5138      1.00000
     27     -33.5049      1.00000
     28     -33.5016      1.00000
     29     -33.4792      1.00000
     30     -33.4755      1.00000
     31     -33.4687      1.00000
     32     -33.4629      1.00000
     33     -33.4624      1.00000
     34     -33.4519      1.00000
     35     -33.4492      1.00000
     36     -31.6765      1.00000
     37     -23.3873      1.00000
     38     -23.0434      1.00000
     39     -19.0800      1.00000
     40     -19.0380      1.00000
     41     -18.9581      1.00000
     42     -18.8859      1.00000
     43     -18.8474      1.00000
     44     -18.7847      1.00000
     45     -18.7787      1.00000
     46     -18.7139      1.00000
     47     -18.6929      1.00000
     48     -18.6766      1.00000
     49     -18.6360      1.00000
     50     -18.6129      1.00000
     51     -18.5842      1.00000
     52     -18.5682      1.00000
     53     -18.5522      1.00000
     54     -18.5234      1.00000
     55     -18.5082      1.00000
     56     -18.5034      1.00000
     57     -18.5002      1.00000
     58     -18.4706      1.00000
     59     -18.4516      1.00000
     60     -18.4359      1.00000
     61     -18.4273      1.00000
     62     -18.3955      1.00000
     63     -18.3707      1.00000
     64     -18.3309      1.00000
     65     -18.3041      1.00000
     66     -18.2945      1.00000
     67     -18.2530      1.00000
     68     -18.2311      1.00000
     69     -18.2095      1.00000
     70     -18.1979      1.00000
     71     -18.1876      1.00000
     72     -18.1307      1.00000
     73     -18.0926      1.00000
     74     -18.0849      1.00000
     75     -18.0812      1.00000
     76     -18.0778      1.00000
     77     -18.0611      1.00000
     78     -17.9948      1.00000
     79     -17.9902      1.00000
     80     -17.9238      1.00000
     81     -17.9213      1.00000
     82     -17.7963      1.00000
     83     -17.7509      1.00000
     84     -17.7346      1.00000
     85     -17.6940      1.00000
     86     -17.6624      1.00000
     87     -17.6229      1.00000
     88     -17.4578      1.00000
     89     -17.3672      1.00000
     90     -17.2035      1.00000
     91     -17.0767      1.00000
     92     -17.0373      1.00000
     93     -16.9523      1.00000
     94     -16.9442      1.00000
     95     -16.9182      1.00000
     96     -16.8842      1.00000
     97     -16.8209      1.00000
     98     -16.7225      1.00000
     99     -16.6951      1.00000
    100     -16.6458      1.00000
    101     -16.5989      1.00000
    102     -16.5955      1.00000
    103     -16.5881      1.00000
    104     -16.5828      1.00000
    105     -16.5769      1.00000
    106     -16.5244      1.00000
    107     -16.4569      1.00000
    108     -16.4267      1.00000
    109     -16.3501      1.00000
    110     -16.3241      1.00000
    111     -16.3179      1.00000
    112     -16.3156      1.00000
    113     -16.2927      1.00000
    114     -16.2753      1.00000
    115     -16.2652      1.00000
    116     -16.2573      1.00000
    117     -16.2399      1.00000
    118     -16.2392      1.00000
    119     -16.2325      1.00000
    120     -16.2283      1.00000
    121     -16.2190      1.00000
    122     -16.2079      1.00000
    123     -16.1802      1.00000
    124     -16.1463      1.00000
    125     -16.1438      1.00000
    126     -16.1296      1.00000
    127     -16.1204      1.00000
    128     -16.0913      1.00000
    129     -16.0874      1.00000
    130     -16.0784      1.00000
    131     -16.0614      1.00000
    132     -16.0492      1.00000
    133     -16.0430      1.00000
    134     -16.0187      1.00000
    135     -16.0143      1.00000
    136     -16.0020      1.00000
    137     -15.9889      1.00000
    138     -15.9778      1.00000
    139     -15.9737      1.00000
    140     -15.9581      1.00000
    141     -15.9485      1.00000
    142     -15.9272      1.00000
    143     -15.9083      1.00000
    144     -15.8675      1.00000
    145     -15.8456      1.00000
    146     -15.8285      1.00000
    147     -15.8100      1.00000
    148     -15.7974      1.00000
    149     -15.7077      1.00000
    150     -15.6571      1.00000
    151     -15.6204      1.00000
    152     -15.5987      1.00000
    153     -15.5443      1.00000
    154     -15.4765      1.00000
    155     -15.4464      1.00000
    156     -15.3954      1.00000
    157     -15.3110      1.00000
    158     -15.2661      1.00000
    159     -15.2281      1.00000
    160     -15.1899      1.00000
    161     -15.1832      1.00000
    162     -15.1610      1.00000
    163     -15.1477      1.00000
    164     -15.0541      1.00000
    165     -15.0283      1.00000
    166     -14.9225      1.00000
    167     -14.9143      1.00000
    168     -14.7701      1.00000
    169     -14.7242      1.00000
    170     -14.6192      1.00000
    171     -14.5675      1.00000
    172     -14.5503      1.00000
    173     -14.3987      1.00000
    174     -14.3733      1.00000
    175     -14.2686      1.00000
    176     -14.2225      1.00000
    177     -14.2092      1.00000
    178     -14.1434      1.00000
    179     -14.0488      1.00000
    180     -14.0328      1.00000
    181     -13.9960      1.00000
    182     -13.9889      1.00000
    183     -13.9729      1.00000
    184     -13.9575      1.00000
    185     -13.9487      1.00000
    186     -13.9117      1.00000
    187     -13.9091      1.00000
    188     -13.8961      1.00000
    189     -13.8887      1.00000
    190     -13.8505      1.00000
    191     -13.7821      1.00000
    192     -13.7758      1.00000
    193     -13.7432      1.00000
    194     -13.7224      1.00000
    195     -13.6919      1.00000
    196     -13.6751      1.00000
    197     -13.6720      1.00000
    198     -13.6269      1.00000
    199     -13.5837      1.00000
    200     -13.5632      1.00000
    201     -13.5412      1.00000
    202     -13.5100      1.00000
    203     -13.4746      1.00000
    204     -13.4481      1.00000
    205     -13.4078      1.00000
    206     -13.3739      1.00000
    207     -13.3651      1.00000
    208     -13.3327      1.00000
    209     -13.2905      1.00000
    210     -13.2327      1.00000
    211     -13.1926      1.00000
    212     -13.1748      1.00000
    213     -13.0672      1.00000
    214     -12.9984      1.00000
    215     -12.9697      1.00000
    216     -12.9324      1.00000
    217     -12.8697      1.00000
    218     -12.6927      1.00000
    219     -12.5884      1.00000
    220      -9.2581      1.00000
    221      -6.8473      1.00000
    222      -6.8082      1.00000
    223      -6.1688      1.00000
    224      -5.9465      1.00000
    225      -5.7091      1.00000
    226      -5.4886      1.00000
    227      -4.1529      1.00000
    228      -4.0017      1.00000
    229      -3.9870      1.00000
    230      -3.8469      1.00000
    231      -3.8145      1.00000
    232      -3.7840      1.00000
    233      -3.7305      1.00000
    234      -3.6634      1.00000
    235      -3.6318      1.00000
    236      -3.5673      1.00000
    237      -3.5418      1.00000
    238      -3.4861      1.00000
    239      -3.4400      1.00000
    240      -3.3669      1.00000
    241      -3.3395      1.00000
    242      -3.3065      1.00000
    243      -3.2944      1.00000
    244      -3.2903      1.00000
    245      -3.2759      1.00000
    246      -3.2378      1.00000
    247      -3.2192      1.00000
    248      -3.2010      1.00000
    249      -3.1913      1.00000
    250      -3.1838      1.00000
    251      -3.1705      1.00000
    252      -3.1608      1.00000
    253      -3.1553      1.00000
    254      -3.1290      1.00000
    255      -3.1190      1.00000
    256      -3.1019      1.00000
    257      -3.0905      1.00000
    258      -3.0742      1.00000
    259      -3.0560      1.00000
    260      -3.0369      1.00000
    261      -3.0165      1.00000
    262      -3.0079      1.00000
    263      -3.0037      1.00000
    264      -2.9778      1.00000
    265      -2.9631      1.00000
    266      -2.9303      1.00000
    267      -2.9118      1.00000
    268      -2.9052      1.00000
    269      -2.8970      1.00000
    270      -2.8677      1.00000
    271      -2.8671      1.00000
    272      -2.8527      1.00000
    273      -2.8274      1.00000
    274      -2.8223      1.00000
    275      -2.8147      1.00000
    276      -2.8056      1.00000
    277      -2.7814      1.00000
    278      -2.7797      1.00000
    279      -2.7451      1.00000
    280      -2.7264      1.00000
    281      -2.7036      1.00000
    282      -2.6942      1.00000
    283      -2.6852      1.00000
    284      -2.6701      1.00000
    285      -2.6596      1.00000
    286      -2.6251      1.00000
    287      -2.5752      1.00000
    288      -2.5457      1.00000
    289      -2.5118      1.00000
    290      -2.4918      1.00000
    291      -2.4838      1.00000
    292      -2.4761      1.00000
    293      -2.4703      1.00000
    294      -2.4004      1.00000
    295      -2.3876      1.00000
    296      -2.3791      1.00000
    297      -2.3664      1.00000
    298      -2.3487      1.00000
    299      -2.3345      1.00000
    300      -2.3323      1.00000
    301      -2.3240      1.00000
    302      -2.3138      1.00000
    303      -2.2955      1.00000
    304      -2.2547      1.00000
    305      -2.2263      1.00000
    306      -2.2117      1.00000
    307      -2.1655      1.00000
    308      -2.1519      1.00000
    309      -2.1267      1.00000
    310      -2.1218      1.00000
    311      -2.0747      1.00000
    312      -2.0601      1.00000
    313      -2.0121      1.00000
    314      -2.0029      1.00000
    315      -2.0022      1.00000
    316      -1.9941      1.00000
    317      -1.9603      1.00000
    318      -1.9448      1.00000
    319      -1.9156      1.00000
    320      -1.8933      1.00000
    321      -1.8916      1.00000
    322      -1.8624      1.00000
    323      -1.8521      1.00000
    324      -1.8321      1.00000
    325      -1.8302      1.00000
    326      -1.8169      1.00000
    327      -1.8040      1.00000
    328      -1.7668      1.00000
    329      -1.7560      1.00000
    330      -1.7367      1.00000
    331      -1.7335      1.00000
    332      -1.7248      1.00000
    333      -1.7161      1.00000
    334      -1.7075      1.00000
    335      -1.7061      1.00000
    336      -1.7016      1.00000
    337      -1.6976      1.00000
    338      -1.6876      1.00000
    339      -1.6717      1.00000
    340      -1.6657      1.00000
    341      -1.6588      1.00000
    342      -1.6165      1.00000
    343      -1.6075      1.00000
    344      -1.5862      1.00000
    345      -1.5682      1.00000
    346      -1.5449      1.00000
    347      -1.5272      1.00000
    348      -1.5153      1.00000
    349      -1.4944      1.00000
    350      -1.4614      1.00000
    351      -1.4536      1.00000
    352      -1.4472      1.00000
    353      -1.4374      1.00000
    354      -1.4040      1.00000
    355      -1.3921      1.00000
    356      -1.3773      1.00000
    357      -1.3476      1.00000
    358      -1.3205      1.00000
    359      -1.3037      1.00000
    360      -1.2907      1.00000
    361      -1.2891      1.00000
    362      -1.2708      1.00000
    363      -1.2600      1.00000
    364      -1.2567      1.00000
    365      -1.2461      1.00000
    366      -1.2311      1.00000
    367      -1.2125      1.00000
    368      -1.1982      1.00000
    369      -1.1884      1.00000
    370      -1.1770      1.00000
    371      -1.1570      1.00000
    372      -1.1503      1.00000
    373      -1.0989      1.00000
    374      -1.0932      1.00000
    375      -1.0880      1.00000
    376      -1.0811      1.00000
    377      -1.0722      1.00000
    378      -1.0407      1.00000
    379      -1.0252      1.00000
    380      -1.0170      1.00000
    381      -1.0096      1.00000
    382      -0.9914      1.00000
    383      -0.9855      1.00000
    384      -0.9757      1.00000
    385      -0.9688      1.00000
    386      -0.9584      1.00000
    387      -0.9570      1.00000
    388      -0.9434      1.00000
    389      -0.9312      1.00000
    390      -0.9244      1.00000
    391      -0.9156      1.00000
    392      -0.9081      1.00000
    393      -0.8943      1.00000
    394      -0.8922      1.00000
    395      -0.8914      1.00000
    396      -0.8731      1.00000
    397      -0.8591      1.00000
    398      -0.8410      1.00000
    399      -0.8346      1.00000
    400      -0.8259      1.00000
    401      -0.8168      1.00000
    402      -0.7912      1.00000
    403      -0.7508      1.00000
    404      -0.7470      1.00000
    405      -0.7098      1.00000
    406      -0.6863      1.00000
    407      -0.6660      1.00000
    408      -0.6433      1.00000
    409      -0.6416      1.00000
[...]
      7.09531      9.70504      1.94101         0.339982      0.002379     -0.320883
      4.35031      1.94101      1.94101        -0.363320      0.023427     -0.288511
      1.60531      1.94101      1.94101         0.365632      0.039874     -0.306227
      9.84031      1.94101      1.94101        -0.349615      0.017141     -0.345985
      9.84031      9.70504      1.94101        -0.353845      0.000809     -0.315968
      7.09531      1.94101      1.94101         0.343558     -0.005876     -0.325195
      1.60531      9.70504      1.94101         0.357880     -0.002728     -0.361334
      4.35031      5.82303      1.94101        -0.366386     -0.013178     -0.286628
      1.60531      5.82303      1.94101         0.364729     -0.025093     -0.307233
      9.84031      5.82303      1.94101        -0.349827     -0.005100     -0.346209
      7.09531      5.82303      1.94101         0.346365      0.014415     -0.324277
      7.09467     11.64381      3.88136        -0.004791     -0.000270      0.003055
      4.34765      7.76284      3.87536         0.001196     -0.001144      0.000235
      7.09352      7.76857      3.88160        -0.003740      0.000769      0.001665
      9.83118      7.76208      3.87135        -0.000110     -0.000217     -0.000525
      1.60695      0.00562      3.86496         0.000172      0.001950      0.001138
      9.83091      0.00456      3.86829        -0.001500     -0.001888     -0.002187
      4.34865      0.00331      3.87559        -0.000856      0.002992      0.001280
      1.60552      7.75934      3.86938        -0.000407     -0.001484     -0.000345
      4.34263      3.88430      3.89070         0.001091     -0.002736      0.003147
      9.83690      3.88376      3.87463        -0.000542      0.002256      0.001810
      7.09032      3.88324      3.87373         0.000486      0.001424     -0.000501
      1.60726      3.88496      3.89198        -0.000964      0.001369     -0.003222
      7.08453      1.95016      5.80437        -0.001073      0.002261     -0.003654
      7.08464      9.70744      5.82827         0.004217      0.000845      0.004768
      4.34329      9.70710      5.79793         0.002794      0.000234     -0.002747
      9.83970      5.81522      5.80749         0.000451      0.000674      0.000658
      1.61364      9.70587      5.77633        -0.000404     -0.001203     -0.001711
      7.08416      5.81845      5.80385        -0.000122     -0.000653     -0.000266
      4.34500      1.92147      5.83486         0.000084     -0.003835      0.007437
      9.83984      1.95559      5.80503         0.001164     -0.002221     -0.006283
      4.34394      5.84893      5.83648         0.001025     -0.003530      0.000812
      1.59583      5.84046      5.83245        -0.001188     -0.001171      0.002424
      1.59762      1.93021      5.82306        -0.001494      0.007131     -0.000950
      9.83809      9.70652      5.79516         0.003691      0.000140      0.002597
      7.07261      3.88454      7.73625        -0.000422      0.001935     -0.000268
      9.82042      0.01059      7.67911         0.001116     -0.001496      0.006098
      1.57741      7.84020      7.72612        -0.000035      0.005461      0.005514
      4.34293      3.88410      7.73901        -0.002018     -0.000023      0.001287
      7.08365      0.04030      7.73745        -0.000041     -0.005057      0.000022
      7.08127      7.73257      7.73630         0.003225      0.005559     -0.002864
      4.35644     11.58472      7.77898         0.001038     -0.005195     -0.006280
      9.81229      7.76185      7.69402        -0.002037      0.000924      0.001482
      4.35377      7.83263      7.77974        -0.001041     -0.000507     -0.012284
      9.81312      3.88460      7.74618        -0.000304     -0.002068     -0.008062
      1.62618      3.87796      7.74533        -0.000189      0.002073      0.002130
      1.58278     11.58658      7.70019        -0.003460      0.002059      0.000261
      6.94924      9.71195      9.57861         0.000423      0.004057      0.016163
      1.69421      9.75221      9.74969        -0.003313     -0.010576     -0.004105
      4.35208      9.71233      9.92913        -0.015956      0.008878     -0.028474
      4.42270      1.93731      9.65130        -0.001024     -0.006521     -0.001559
      1.55577      1.80665      9.63996         0.000684     -0.006956      0.004958
      9.96187      9.72128      9.57514         0.002431      0.000610     -0.008384
      9.84149      1.81833      9.66815         0.004945     -0.002773      0.002709
      7.01048      1.95886      9.67837         0.001476      0.004856      0.007244
      4.42351      5.82799      9.64800        -0.003507      0.002894     -0.002056
      9.83593      5.94398      9.67409         0.003868     -0.006273     -0.007041
      7.00970      5.81196      9.67330         0.006131     -0.003887      0.006267
      1.54667      5.94431      9.62696         0.006729      0.010242      0.007414
      2.88222      9.15370     11.19725        -0.002122      0.036754      0.020657
      4.60738      8.25112     13.48629        -0.006934      0.004768      0.001349
      3.93809      8.60181     12.60168         0.019178     -0.021741     -0.023235
      1.08939      8.57164     11.98854         0.009819     -0.040762     -0.015424
      0.95163      8.05721     13.19881         0.005188     -0.031443     -0.018261
 -----------------------------------------------------------------------------------
    total drift:                               -0.018277     -0.017005     -0.097106


--------------------------------------------------------------------------------------------------------



  FREE ENERGIE OF THE ION-ELECTRON SYSTEM (eV)
  ---------------------------------------------------
  free  energy   TOTEN  =      -917.89179569 eV

  energy  without entropy=     -917.89179569  energy(sigma->0) =     -917.89179569
 
 d Force = 0.1580603E-03[ 0.119E-03, 0.197E-03]  d Energy = 0.1775783E-03-0.195E-04
 d Force = 0.6407885E+00[ 0.641E+00, 0.641E+00]  d Ewald  = 0.6407882E+00 0.247E-06


--------------------------------------------------------------------------------------------------------


    POTLOK:  cpu time    3.12: real time    3.12


--------------------------------------------------------------------------------------------------------


 stress matrix after NEB project (eV)
    -72.17910      0.17789      0.47067
      0.17789   -124.98245     -0.85983
      0.47083     -0.86001    -68.66326
  FORCES: max atom, RMS     0.044675    0.010123
  FORCE total and by dimension    0.107613    0.040762
  Stress total and by dimension  159.834488  124.982448
 Steepest descent step on ions:
 trial-energy change:   -0.000178  1 .order   -0.000158   -0.000197   -0.000119
  (g-gl).g = 0.197E-03      g.g   = 0.197E-03  gl.gl    = 0.000E+00
 g(Force)  = 0.197E-03   g(Stress)= 0.000E+00 ortho     = 0.000E+00
 gamma     =   0.00000
 trial     =   1.00000
 opt step  =   2.51147  (harmonic =   2.51147) maximal distance =0.00172022
 next E    =  -917.891866   (d E  =  -0.00025)


--------------------------------------------------------------------------------------------------------


  
 reached required accuracy - stopping structural energy minimisation
 writing wavefunctions
     LOOP+:  cpu time  128.95: real time  212.17
    4ORBIT:  cpu time    0.00: real time    0.00
 


 total charge     
 
# of ion     s       p       d       f       tot
------------------------------------------------
  1        1.992   5.764   0.872   0.774   9.402
  2        1.992   5.764   0.872   0.774   9.402
  3        1.992   5.764   0.872   0.774   9.401
  4        1.992   5.764   0.872   0.774   9.402
  5        1.992   5.764   0.872   0.774   9.401
  6        1.991   5.764   0.872   0.775   9.402
  7        1.994   5.819   0.903   0.722   9.437
  8        1.994   5.819   0.903   0.722   9.437
  9        1.994   5.819   0.906   0.723   9.441
 10        1.993   5.818   0.902   0.722   9.435
 11        1.993   5.818   0.901   0.721   9.434
 12        1.994   5.819   0.905   0.722   9.440
 13        1.995   5.820   0.913   0.725   9.453
 14        1.994   5.820   0.912   0.725   9.451
 15        1.994   5.819   0.907   0.723   9.444
 16        1.995   5.820   0.913   0.725   9.452
 17        1.994   5.819   0.907   0.723   9.443
 18        1.995   5.821   0.919   0.727   9.462
 19        1.996   5.821   0.922   0.728   9.466
 20        1.995   5.820   0.917   0.726   9.458
 21        1.994   5.819   0.910   0.725   9.448
 22        1.996   5.822   0.926   0.729   9.473
 23        1.995   5.820   0.917   0.726   9.458
 24        1.995   5.820   0.915   0.726   9.456
 25        1.994   5.819   0.919   0.725   9.456
 26        1.994   5.819   0.918   0.725   9.455
 27        1.992   5.815   0.908   0.725   9.441
 28        1.997   5.819   0.923   0.730   9.468
 29        1.992   5.816   0.907   0.724   9.439
 30        1.992   5.816   0.906   0.724   9.438
 31        2.002   5.782   1.023   0.780   9.588
 32        2.002   5.778   0.998   0.768   9.546
 33        1.998   5.790   0.989   0.767   9.544
 34        2.002   5.779   0.997   0.770   9.548
 35        2.021   5.752   0.681   1.159   9.614
 36        2.002   5.780   1.000   0.774   9.555
 37        1.600   3.384   0.000   0.000   4.985
 38        1.600   3.384   0.000   0.000   4.985
 39        1.600   3.384   0.000   0.000   4.985
 40        1.600   3.384   0.000   0.000   4.984
 41        1.600   3.384   0.000   0.000   4.985
 42        1.600   3.384   0.000   0.000   4.984
 43        1.600   3.384   0.000   0.000   4.985
 44        1.600   3.384   0.000   0.000   4.985
 45        1.600   3.384   0.000   0.000   4.985
 46        1.600   3.384   0.000   0.000   4.984
 47        1.600   3.384   0.000   0.000   4.984
 48        1.600   3.384   0.000   0.000   4.985
 49        1.597   3.459   0.000   0.000   5.056
 50        1.597   3.457   0.000   0.000   5.053
 51        1.596   3.455   0.000   0.000   5.051
 52        1.596   3.456   0.000   0.000   5.052
 53        1.597   3.456   0.000   0.000   5.052
 54        1.596   3.456   0.000   0.000   5.053
 55        1.597   3.456   0.000   0.000   5.053
 56        1.597   3.459   0.000   0.000   5.056
 57        1.596   3.455   0.000   0.000   5.051
 58        1.596   3.456   0.000   0.000   5.052
 59        1.597   3.456   0.000   0.000   5.053
 60        1.597   3.456   0.000   0.000   5.053
 61        1.598   3.466   0.000   0.000   5.063
 62        1.598   3.465   0.000   0.000   5.063
 63        1.598   3.466   0.000   0.000   5.064
 64        1.598   3.466   0.000   0.000   5.064
 65        1.598   3.466   0.000   0.000   5.065
 66        1.598   3.467   0.000   0.000   5.066
 67        1.598   3.464   0.000   0.000   5.062
 68        1.598   3.465   0.000   0.000   5.063
 69        1.598   3.465   0.000   0.000   5.063
 70        1.598   3.464   0.000   0.000   5.061
 71        1.598   3.466   0.000   0.000   5.064
 72        1.598   3.462   0.000   0.000   5.060
 73        1.597   3.455   0.000   0.000   5.052
 74        1.597   3.454   0.000   0.000   5.051
 75        1.598   3.462   0.000   0.000   5.060
 76        1.597   3.458   0.000   0.000   5.055
 77        1.598   3.465   0.000   0.000   5.062
 78        1.597   3.455   0.000   0.000   5.052
 79        1.597   3.452   0.000   0.000   5.049
 80        1.597   3.458   0.000   0.000   5.055
 81        1.597   3.451   0.000   0.000   5.049
 82        1.597   3.455   0.000   0.000   5.053
 83        1.597   3.455   0.000   0.000   5.053
 84        1.598   3.456   0.000   0.000   5.054
 85        1.599   3.478   0.000   0.000   5.077
 86        1.599   3.479   0.000   0.000   5.078
 87        1.598   3.471   0.000   0.000   5.069
 88        1.598   3.474   0.000   0.000   5.072
 89        1.599   3.476   0.000   0.000   5.076
 90        1.599   3.477   0.000   0.000   5.076
 91        1.599   3.472   0.000   0.000   5.070
 92        1.599   3.477   0.000   0.000   5.076
 93        1.599   3.472   0.000   0.000   5.071
 94        1.598   3.477   0.000   0.000   5.075
 95        1.597   3.473   0.000   0.000   5.070
 96        1.599   3.475   0.000   0.000   5.074
 97        1.601   3.410   0.000   0.000   5.011
 98        1.592   3.456   0.000   0.000   5.048
 99        1.593   3.409   0.000   0.000   5.001
100        1.602   3.415   0.000   0.000   5.017
101        1.602   3.425   0.000   0.000   5.027
102        1.602   3.417   0.000   0.000   5.018
103        1.602   3.428   0.000   0.000   5.029
104        1.602   3.417   0.000   0.000   5.018
105        1.603   3.415   0.000   0.000   5.017
106        1.602   3.430   0.000   0.000   5.031
107        1.602   3.417   0.000   0.000   5.019
108        1.603   3.428   0.000   0.000   5.030
109        0.753   0.763   8.017   0.000   9.533
110        1.640   3.542   0.000   0.000   5.182
111        0.969   1.589   0.000   0.000   2.558
112        1.605   3.355   0.000   0.000   4.960
113        1.628   3.268   0.000   0.000   4.896
------------------------------------------------
tot      193.527 469.329  40.820  27.051 730.726

 


 magnetization (x)
 
# of ion     s       p       d       f       tot
------------------------------------------------
  1       -0.000  -0.000  -0.000  -0.000  -0.000
  2        0.000   0.000  -0.000  -0.000  -0.000
  3       -0.000   0.000  -0.000  -0.000  -0.000
  4       -0.000   0.000  -0.000  -0.000  -0.000
  5       -0.000  -0.000  -0.000  -0.000  -0.000
  6        0.000   0.000   0.000   0.000   0.000
  7       -0.000  -0.000   0.000  -0.000  -0.000
  8        0.000   0.000  -0.000  -0.000  -0.000
  9        0.000   0.000   0.000   0.000   0.000
 10       -0.000  -0.000  -0.000  -0.000  -0.000
 11        0.000   0.000  -0.000  -0.000  -0.000
 12        0.000   0.000   0.000   0.000   0.000
 13       -0.000   0.000   0.000   0.000   0.000
 14        0.000   0.000   0.000   0.000   0.000
 15       -0.000   0.000   0.000  -0.000  -0.000
 16        0.000   0.000   0.000  -0.000  -0.000
 17       -0.000   0.000   0.000  -0.000  -0.000
 18        0.000   0.000   0.000   0.000   0.000
 19       -0.000   0.000   0.000  -0.000  -0.000
 20        0.000   0.000   0.000   0.000   0.000
 21        0.000   0.000  -0.000  -0.003  -0.003
 22        0.000   0.000  -0.000  -0.000  -0.000
 23        0.000   0.000   0.000   0.000   0.000
 24       -0.000   0.000  -0.000  -0.000  -0.000
 25        0.000   0.000   0.000  -0.000  -0.000
 26        0.000   0.000   0.000  -0.001  -0.001
 27        0.000   0.000  -0.000  -0.006  -0.006
 28       -0.000  -0.000  -0.000  -0.000  -0.000
 29        0.000   0.000  -0.000  -0.005  -0.005
 30        0.000   0.000   0.000  -0.000   0.000
 31        0.000   0.000   0.000  -0.001  -0.001
 32        0.000   0.000   0.000   0.001   0.001
 33        0.000   0.001   0.001   0.002   0.004
 34       -0.000  -0.000   0.000   0.004   0.004
 35        0.004   0.007  -0.012  -0.975  -0.977
 36        0.000   0.000   0.000  -0.000  -0.000
 37       -0.000   0.000   0.000   0.000   0.000
 38        0.000   0.000   0.000   0.000   0.000
 39        0.000   0.000   0.000   0.000   0.000
 40        0.000   0.000   0.000   0.000   0.000
 41        0.000   0.000   0.000   0.000   0.000
 42        0.000   0.000   0.000   0.000   0.000
 43        0.000   0.000   0.000   0.000   0.000
 44        0.000   0.000   0.000   0.000   0.000
 45        0.000   0.000   0.000   0.000   0.000
 46        0.000   0.000   0.000   0.000   0.000
 47        0.000   0.000   0.000   0.000   0.000
 48        0.000   0.000   0.000   0.000   0.000
 49        0.000   0.000   0.000   0.000   0.000
 50        0.000   0.000   0.000   0.000   0.000
 51        0.000   0.000   0.000   0.000   0.000
 52        0.000   0.000   0.000   0.000   0.000
 53        0.000   0.000   0.000   0.000   0.000
 54        0.000   0.000   0.000   0.000   0.000
 55        0.000   0.000   0.000   0.000   0.000
 56        0.000   0.000   0.000   0.000   0.000
 57        0.000   0.000   0.000   0.000   0.000
 58        0.000   0.000   0.000   0.000   0.000
 59        0.000   0.000   0.000   0.000   0.000
 60        0.000   0.000   0.000   0.000   0.000
 61        0.000   0.000   0.000   0.000   0.000
 62        0.000   0.000   0.000   0.000   0.000
 63       -0.000   0.000   0.000   0.000   0.000
 64        0.000   0.000   0.000   0.000   0.000
 65        0.000   0.000   0.000   0.000   0.000
 66        0.000   0.000   0.000   0.000   0.000
 67        0.000   0.000   0.000   0.000   0.000
 68        0.000   0.000   0.000   0.000   0.000
 69        0.000   0.000   0.000   0.000   0.000
 70        0.000   0.000   0.000   0.000   0.000
 71        0.000   0.000   0.000   0.000   0.000
 72        0.000   0.000   0.000   0.000   0.000
 73        0.000   0.000   0.000   0.000   0.000
 74        0.000   0.000   0.000   0.000   0.000
 75        0.000   0.000   0.000   0.000   0.000
 76        0.000   0.000   0.000   0.000   0.000
 77        0.000   0.000   0.000   0.000   0.000
 78        0.000   0.000   0.000   0.000   0.000
 79        0.000   0.000   0.000   0.000   0.000
 80        0.000   0.000   0.000   0.000   0.000
 81        0.000   0.000   0.000   0.000   0.000
 82        0.000   0.000   0.000   0.000   0.000
 83        0.000   0.000   0.000   0.000   0.000
 84        0.000   0.000   0.000   0.000   0.000
 85        0.000   0.000   0.000   0.000   0.000
 86        0.000   0.000   0.000   0.000   0.000
 87        0.000   0.000   0.000   0.000   0.000
 88        0.000   0.000   0.000   0.000   0.000
 89        0.000   0.000   0.000   0.000   0.000
 90       -0.000  -0.000   0.000   0.000  -0.000
 91        0.000   0.000   0.000   0.000   0.000
 92        0.000   0.001   0.000   0.000   0.001
 93        0.000   0.000   0.000   0.000   0.000
 94        0.000   0.003   0.000   0.000   0.003
 95        0.000   0.007   0.000   0.000   0.008
 96        0.000   0.000   0.000   0.000   0.000
 97       -0.000  -0.000   0.000   0.000  -0.000
 98       -0.000  -0.001   0.000   0.000  -0.001
 99       -0.000   0.004   0.000   0.000   0.004
100        0.000   0.000   0.000   0.000   0.000
101        0.000   0.004   0.000   0.000   0.004
102        0.000   0.001   0.000   0.000   0.001
103        0.000   0.003   0.000   0.000   0.004
104        0.000   0.000   0.000   0.000   0.000
105       -0.000   0.000   0.000   0.000   0.000
106        0.000   0.003   0.000   0.000   0.004
107       -0.000  -0.000   0.000   0.000  -0.000
108        0.000   0.005   0.000   0.000   0.005
109       -0.002  -0.000   0.052   0.000   0.050
110       -0.000  -0.001   0.000   0.000  -0.001
111       -0.000  -0.001   0.000   0.000  -0.001
112        0.005   0.286   0.000   0.000   0.291
113        0.006   0.468   0.000   0.000   0.475
------------------------------------------------
tot        0.014   0.793   0.041  -0.986  -0.138

 

 total amount of memory used by VASP on root node    89983. kBytes
========================================================================

   base      :      30000. kBytes
   nonlr-proj:      13942. kBytes
   fftplans  :      14971. kBytes
   grid      :      24145. kBytes
   one-center:        933. kBytes
   wavefun   :       5992. kBytes
 
  
  
 General timing and accounting informations for this job:
 ========================================================
  
                  Total CPU time used (sec):      274.261
                            User time (sec):      257.436
                          System time (sec):       16.824
                         Elapsed time (sec):      379.485
  
                   Maximum memory used (kb):      303464.
                   Average memory used (kb):           0.
  
                          Minor page faults:       179320
                          Major page faults:            6
                 Voluntary context switches:       199697
